Untitled
 6900
    1R01     A1    1   1.435   4.186   0.459 -0.6538 -0.1504  0.0921
    1R01     A2    2   1.328   4.184   0.440  0.6576  0.8420  1.1958
    1R01     A3    3   1.433   4.233   0.560 -2.7636  1.6110  0.8400
    1R01     A4    4   1.467   4.082   0.459  1.3708  2.6476 -0.6206
    1R01     A5    5   1.507   4.279   0.363 -0.5919  0.3324 -0.4691
    1R01     A6    6   1.659   4.286   0.394 -0.7083 -0.3666 -0.6642
    1R01     A7    7   1.709   4.191   0.370  1.1081  0.9191 -4.6843
    1R01     A8    8   1.719   4.364   0.348 -0.8875 -1.6763  0.0186
    1R01     A9    9   1.675   4.303   0.500  2.8660 -0.0823 -2.3102
    1R01     Aa   10   1.455   4.428   0.371  0.2347 -0.4297  0.2361
    1R01     Ab   11   1.402   4.453   0.242  0.2817 -0.4632  0.8472
    1R01     Ac   12   1.367   4.586   0.204 -0.6236  0.3747  0.7096
    1R01     Ad   13   1.332   4.612   0.111 -1.7571 -3.2773  0.5154
    1R01     Ae   14   1.367   4.677   0.310 -0.4556 -0.3616  0.0690
    1R01     Af   15   1.334   4.823   0.330 -0.7286  0.6399  0.1913
    1R01    A10   16   1.231   4.846   0.309  1.5915 -0.6470  0.6741
    1R01    A11   17   1.370   4.794   0.483  0.2619  0.0038 -0.4974
    1R01    A12   18   1.282   4.794   0.546  0.5990  3.2273 -1.1815
    1R01    A13   19   1.473   4.904   0.519  0.4776 -0.2179  0.0560
    1R01    A14   20   1.527   4.887   0.611  1.3957  1.5347 -0.7455
    1R01    A15   21   1.389   5.040   0.501  0.1823  0.0252 -0.3745
    1R01    A16   22   1.284   5.042   0.545 -1.2017  0.5887  0.9881
    1R01    A17   23   1.377   5.059   0.349 -0.0814 -0.4866  0.0744
    1R01    A18   24   1.287   5.090   0.307 -1.3881 -2.5169 -0.5585
    1R01    A19   25   1.433   4.931   0.276 -0.7212  0.2554 -0.0550
    1R01    A1a   26   1.448   4.939   0.171 -2.6050 -2.9880 -0.5320
    1R01    A1b   27   1.555   4.900   0.382  0.3742 -0.0693  0.0499
    1R01    A1c   28   1.630   4.969   0.392  0.2385 -1.7603  1.6637
    1R01    A1d   29   1.609   4.806   0.366 -0.1620  0.0414 -2.0527
    1R01    A1e   30   1.396   4.645   0.440 -0.1445  0.7873  0.2161
    1R01    A1f   31   1.449   4.526   0.475 -0.0403 -0.0204  0.1438
    1R01    A20   32   1.494   4.519   0.569  2.2395 -1.6215 -0.1794
    1R01    A21   33   1.411   4.341   0.155 -0.3458  0.1238 -0.3798
    1R01    A22   34   1.483   4.233   0.223  0.3169  0.0221  0.5597
    1R01    A23   35   1.535   4.122   0.151 -0.4584 -0.1198  0.0158
    1R01    A24   36   1.591   4.039   0.192 -2.3637  0.6662  1.7136
    1R01    A25   37   1.495   4.121   0.017 -0.8298  0.4073 -0.0791
    1R01    A26   38   1.523   4.045  -0.110 -0.1098  0.0949 -0.2556
    1R01    A27   39   1.632   4.053  -0.128 -1.6053  1.0345  1.1684
    1R01    A28   40   1.442   4.161  -0.180 -0.0702 -0.0214  0.1857
    1R01    A29   41   1.494   4.236  -0.243  0.5179 -0.3270 -0.7974
    1R01    A2a   42   1.322   4.101  -0.259 -0.5030 -0.2161 -0.0167
    1R01    A2b   43   1.277   4.171  -0.326  1.3529  0.0477  1.8487
    1R01    A2c   44   1.233   4.032  -0.150  0.4142 -0.9590 -0.6900
    1R01    A2d   45   1.135   4.015  -0.202 -1.4560  0.0068 -0.7947
    1R01    A2e   46   1.193   4.064  -0.002  0.1699  0.0464 -0.3820
    1R01    A2f   47   1.256   3.948   0.050  0.0881  0.4359  0.2078
    1R01    A30   48   1.233   3.898   0.180 -0.2020 -0.0119 -0.6393
    1R01    A31   49   1.277   3.761   0.235  0.2127  0.0355  1.1490
    1R01    A32   50   1.375   3.730   0.192 -0.6778  0.8094  0.7713
    1R01    A33   51   1.296   3.771   0.341  0.7303  1.5877 -1.3482
    1R01    A34   52   1.212   3.672   0.217 -0.2855 -2.2005 -0.1485
    1R01    A35   53   1.153   3.980   0.252 -0.3920 -0.1005  0.1329
    1R01    A36   54   1.094   4.097   0.200  0.1035 -0.4905 -0.6678
    1R01    A37   55   1.105   4.148   0.070  0.0970  0.0614 -0.0507
    1R01    A38   56   1.028   4.260   0.009 -0.5493 -0.1710 -0.0036
    1R01    A39   57   1.012   4.339   0.091 -1.8374 -2.2680 -0.0503
    1R01    A3a   58   0.931   4.218  -0.026 -0.8943  0.4623 -0.6074
    1R01    A3b   59   1.080   4.306  -0.073  1.5974 -1.4196  0.1743
    1R01    A3c   60   1.305   3.906  -0.088  0.2634  0.0162 -0.0958
    1R01    A3d   61   1.258   3.809  -0.118 -1.2617  0.2804  0.5529
    1R01    A3e   62   1.452   3.913  -0.154 -0.0197 -0.1671  0.0338
    1R01    A3f   63   1.506   3.819  -0.140  0.2353  1.8472  4.8388
    1R01    A40   64   1.405   3.964  -0.297  0.2767  0.3583  0.2071
    1R01    A41   65   1.490   3.980  -0.361  1.9747 -2.2435 -2.5874
    1R01    A42   66   1.347   3.892  -0.347  0.5985  1.2952 -1.8136
    1R01    A43   67   1.427   4.219  -0.048  0.4739 -0.4634  0.0627
    1R01    A44   68   1.382   4.338   0.014  0.2434 -0.4811  0.2469
    1R01    A45   69   1.335   4.414  -0.041 -3.2717 -0.5774 -0.0198
    1R01    A46   70   2.390   1.641   0.272  1.1617 -0.1243  0.6898
    1R01    A47   71   2.433   1.670   0.368  0.2406 -0.5669 -0.3654
    1R01    A48   72   2.475   1.628   0.202 -2.2470 -1.2301  0.7825
    1R01    A49   73   2.313   1.709   0.229  1.5596  0.1762  2.0975
    1R01    A4a   74   2.327   1.510   0.283  0.2758  0.0656  1.0071
    1R01    A4b   75   2.436   1.406   0.320  0.2199 -0.5234  0.3075
    1R01    A4c   76   2.514   1.404   0.246  0.1559  0.7340 -1.6332
    1R01    A4d   77   2.395   1.305   0.335  0.9968 -2.4321  0.4262
    1R01    A4e   78   2.484   1.424   0.414 -0.9029 -0.0360 -0.0868
    1R01    A4f   79   2.269   1.459   0.154  0.6521  0.7538 -0.2289
    1R01    A50   80   2.131   1.448   0.170  0.1003  0.4693  0.0640
    1R01    A51   81   2.046   1.393   0.069  0.1341 -0.8910 -0.1337
    1R01    A52   82   1.939   1.370   0.067  0.5964 -0.0458  1.0111
    1R01    A53   83   2.114   1.345  -0.045 -0.1876 -0.2585 -0.5588
    1R01    A54   84   2.075   1.311  -0.187  0.3979  0.0817  0.4037
    1R01    A55   85   2.021   1.392  -0.234  1.2894  0.6197  1.0952
    1R01    A56   86   2.239   1.321  -0.204 -0.0591 -0.2415 -0.5547
    1R01    A57   87   2.276   1.404  -0.268  1.0852  1.9163 -4.5140
    1R01    A58   88   2.287   1.178  -0.249  0.0880  0.0890 -0.4009
    1R01    A59   89   2.392   1.145  -0.239 -0.9198 -2.4510 -1.3017
    1R01    A5a   90   2.234   1.196  -0.391  0.9794  0.0600  0.7877
    1R01    A5b   91   2.271   1.280  -0.442  0.2722 -1.2653  1.5008
    1R01    A5c   92   2.072   1.180  -0.389  0.3428 -0.9992 -0.2538
    1R01    A5d   93   2.023   1.268  -0.437  1.9745  1.5463 -0.5675
    1R01    A5e   94   2.043   1.167  -0.240  0.3322  0.1922 -0.5893
    1R01    A5f   95   1.948   1.124  -0.207 -1.0024 -1.1820 -1.2865
    1R01    A60   96   2.175   1.085  -0.184 -0.2028 -0.5135  0.5290
    1R01    A61   97   2.177   1.083  -0.075 -2.3984  2.0288  2.1593
    1R01    A62   98   2.174   0.979  -0.218  0.5090 -0.9941  1.3273
    1R01    A63   99   2.243   1.358  -0.060  0.6505  0.0641 -0.3208
    1R01    A64  100   2.332   1.413   0.030  1.1003  0.6764 -0.4625
    1R01    A65  101   2.441   1.424   0.023 -0.2525  1.2960 -0.3073
    1R01    A66  102   2.094   1.497   0.307  0.4215 -0.0725 -0.2713
    1R01    A67  103   2.206   1.528   0.381 -0.7840  0.1695 -0.1038
    1R01    A68  104   2.196   1.540   0.523 -0.0392  0.1871  0.2797
    1R01    A69  105   2.287   1.566   0.582  1.2680  0.2015 -3.6247
    1R01    A6a  106   2.070   1.520   0.583 -0.8715 -0.8070 -0.7531
    1R01    A6b  107   2.000   1.510   0.718  0.1570 -0.2464  0.3027
    1R01    A6c  108   2.016   1.407   0.769 -0.8590 -5.3270  0.7857
    1R01    A6d  109   1.873   1.487   0.631 -0.4328 -0.2589 -0.3806
    1R01    A6e  110   1.832   1.383   0.657 -0.9381 -0.1918  1.4609
    1R01    A6f  111   1.767   1.590   0.679 -0.3323  0.1702  0.7569
    1R01    A70  112   1.667   1.570   0.642  0.7958 -0.2906  0.2328
    1R01    A71  113   1.828   1.732   0.648  0.0004  0.5191  0.4905
    1R01    A72  114   1.750   1.807   0.663 -2.0087  0.3116  0.8050
    1R01    A73  115   1.918   1.790   0.536  0.0962  0.1668 -0.0948
    1R01    A74  116   2.018   1.808   0.624 -0.2156  0.2069 -0.2678
    1R01    A75  117   2.145   1.863   0.589  0.4276  0.1607  0.1914
    1R01    A76  118   2.243   1.894   0.696  0.0146 -0.5768  0.2934
    1R01    A77  119   2.287   1.993   0.686 -2.7916 -0.2848  1.5504
    1R01    A78  120   2.200   1.879   0.792  0.1326  1.5074 -4.0583
    1R01    A79  121   2.328   1.831   0.685  0.5346 -1.3976  1.8304
    1R01    A7a  122   2.163   1.891   0.449 -0.6952  0.5280 -0.5894
    1R01    A7b  123   2.059   1.862   0.355  0.2568  0.1341 -0.3323
    1R01    A7c  124   1.926   1.826   0.400  0.8086  0.3430 -0.2586
    1R01    A7d  125   1.824   1.785   0.291  0.0940  0.4567  0.4804
    1R01    A7e  126   1.877   1.765   0.203  0.2461  2.3077 -0.5552
    1R01    A7f  127   1.753   1.708   0.321  0.4464 -1.9477 -0.1887
    1R01    A80  128   1.763   1.872   0.261 -0.0974  0.8677 -0.1553
    1R01    A81  129   1.946   1.752   0.746 -0.5365 -0.5623  0.3613
    1R01    A82  130   1.929   1.831   0.821  0.7138  0.7295  0.4530
    1R01    A83  131   1.961   1.616   0.820 -0.4485 -1.0416  0.1992
    1R01    A84  132   2.023   1.616   0.905  1.4485  0.2427 -1.2107
    1R01    A85  133   1.806   1.593   0.830 -0.0334  0.9424 -0.6475
    1R01    A86  134   1.771   1.497   0.878 -1.6107  1.2266 -1.2853
    1R01    A87  135   1.752   1.677   0.874 -0.2817  0.1708  1.0982
    1R01    A88  136   1.955   1.497   0.505 -0.0494 -0.2138  0.2776
    1R01    A89  137   1.963   1.478   0.364 -0.3560 -0.5640  0.2522
    1R01    A8a  138   1.878   1.434   0.309  1.7128 -3.1477 -0.3240
    1R01    A8b  139   2.608   4.224   2.422 -1.2871 -0.9764  0.0011
    1R01    A8c  140   2.577   4.329   2.403  1.8108 -1.4456  0.1818
    1R01    A8d  141   2.648   4.205   2.522 -0.0658  3.6186 -1.7392
    1R01    A8e  142   2.518   4.161   2.416 -0.4573 -2.9193 -1.0375
    1R01    A8f  143   2.710   4.177   2.308 -0.3343  0.4504 -0.9294
    1R01    A90  144   2.728   4.026   2.304 -0.3578  0.7719 -0.8492
    1R01    A91  145   2.809   3.995   2.237  0.4163  1.0388 -1.0583
    1R01    A92  146   2.631   3.980   2.261  1.0709 -0.7855 -0.2450
    1R01    A93  147   2.753   3.976   2.396 -0.0709  2.6365  0.0147
    1R01    A94  148   2.849   4.235   2.337  0.2408 -0.1190  0.5026
    1R01    A95  149   2.882   4.317   2.226  0.0453  0.4083 -0.2466
    1R01    A96  150   3.012   4.386   2.226  0.3786  0.1855  0.0659
    1R01    A97  151   3.043   4.455   2.146  0.7745  0.6119 -0.0059
    1R01    A98  152   3.088   4.367   2.345 -0.5703 -0.3330  0.5243
    1R01    A99  153   3.235   4.357   2.375  0.7690 -0.1340  0.2240
    1R01    A9a  154   3.259   4.448   2.425 -2.2455 -0.7805  1.4310
    1R01    A9b  155   3.203   4.246   2.478  0.0733  0.7356 -0.2705
    1R01    A9c  156   3.221   4.275   2.584 -1.3618 -0.1493  2.1360
    1R01    A9d  157   3.290   4.121   2.431 -0.0644  0.1424  0.1812
    1R01    A9e  158   3.253   4.021   2.460  1.8651 -0.4366  1.2244
    1R01    A9f  159   3.434   4.164   2.469 -0.4192 -0.2069  0.2093
    1R01    Aa0  160   3.449   4.205   2.572  3.3470 -1.0882 -2.5049
    1R01    Aa1  161   3.459   4.284   2.369  0.2817 -0.3738 -0.4598
    1R01    Aa2  162   3.473   4.376   2.422  2.1601  0.8838 -0.2392
    1R01    Aa3  163   3.340   4.296   2.271  0.1875  0.6131 -0.1665
    1R01    Aa4  164   3.359   4.339   2.167 -2.2660 -1.0267 -1.6332
    1R01    Aa5  165   3.287   4.147   2.274  0.1632  0.1752 -0.1207
    1R01    Aa6  166   3.197   4.123   2.224  3.1020  1.6279  1.8993
    1R01    Aa7  167   3.365   4.090   2.223  1.7204 -0.1313 -1.2826
    1R01    Aa8  168   3.056   4.272   2.436 -0.3331  0.6550 -0.2691
    1R01    Aa9  169   2.937   4.199   2.439  0.1869 -0.0553  0.0820
    1R01    Aaa  170   2.913   4.125   2.506 -0.4919  1.4288  0.7052
    1R01    Aab  171   2.776   4.323   2.132 -0.4582  0.1043 -0.0966
    1R01    Aac  172   2.673   4.235   2.174  0.4246  0.8865  0.1973
    1R01    Aad  173   2.558   4.204   2.094 -0.1431  0.6617 -0.2678
    1R01    Aae  174   2.489   4.126   2.132  1.3518 -0.8765  3.1054
    1R01    Aaf  175   2.556   4.265   1.973  0.5273  0.3376 -0.6404
    1R01    Ab0  176   2.488   4.239   1.840  0.6062 -0.5463 -0.2449
    1R01    Ab1  177   2.500   4.133   1.801  0.8569 -0.1446  1.2861
    1R01    Ab2  178   2.607   4.326   1.780  0.4611 -0.3991 -0.1061
    1R01    Ab3  179   2.674   4.265   1.719 -2.6204 -2.4924  0.3418
    1R01    Ab4  180   2.542   4.419   1.676  0.0107 -0.4278  0.2713
    1R01    Ab5  181   2.609   4.452   1.592  0.0377 -0.6222  1.4346
    1R01    Ab6  182   2.465   4.533   1.759  0.3881 -0.1951 -1.1696
    1R01    Ab7  183   2.422   4.616   1.706  0.3890  0.9556  0.6553
    1R01    Ab8  184   2.492   4.583   1.896  0.3384  0.0878 -0.6100
    1R01    Ab9  185   2.393   4.514   1.964  0.4265  0.2023  0.5314
    1R01    Aba  186   2.369   4.527   2.104  0.2656  0.2929  0.1311
    1R01    Abb  187   2.270   4.454   2.188  0.2964  0.1316  0.7465
    1R01    Abc  188   2.180   4.430   2.127 -1.5941 -1.4804 -0.7278
    1R01    Abd  189   2.217   4.514   2.271 -1.6298 -0.3794  1.4367
    1R01    Abe  190   2.310   4.358   2.228  1.5907 -1.9828 -0.7799
    1R01    Abf  191   2.467   4.612   2.167  0.3227  0.4488 -0.5150
    1R01    Ac0  192   2.560   4.678   2.098  0.2984 -0.1103 -0.2984
    1R01    Ac1  193   2.586   4.664   1.962  0.8171  0.5499  0.0014
    1R01    Ac2  194   2.696   4.740   1.883 -0.1139  0.0895 -0.0366
    1R01    Ac3  195   2.776   4.793   1.940  1.2281  2.0986  0.4062
    1R01    Ac4  196   2.664   4.820   1.821 -1.6340  0.3252  0.9302
    1R01    Ac5  197   2.740   4.675   1.807 -0.9393  1.7004 -1.4454
    1R01    Ac6  198   2.344   4.454   1.838  0.4548 -0.3610  0.3024
    1R01    Ac7  199   2.241   4.485   1.817  1.3403 -1.6048  0.6302
    1R01    Ac8  200   2.356   4.305   1.786 -0.5086 -0.1036 -0.1566
    1R01    Ac9  201   2.269   4.238   1.792 -0.8091 -1.6450  1.1050
    1R01    Aca  202   2.413   4.335   1.636  0.4197  0.2854  0.5026
    1R01    Acb  203   2.346   4.393   1.580  0.1489 -1.6816 -0.8778
    1R01    Acc  204   2.427   4.246   1.578 -0.4187  1.3380 -0.8073
    1R01    Acd  205   2.655   4.343   1.927  0.3226 -0.0442  0.0320
    1R01    Ace  206   2.770   4.375   2.001 -0.2575 -0.3987  0.6094
    1R01    Acf  207   2.859   4.419   1.961 -1.5552  0.3974  0.5859
    1R01    Ad0  208   4.053   0.797   0.093  0.2086 -0.0092  1.1538
    1R01    Ad1  209   4.087   0.791  -0.012 -0.3628 -1.2512 -0.9468
    1R01    Ad2  210   4.038   0.905   0.103 -2.1426  0.5768 -2.4918
    1R01    Ad3  211   3.955   0.734   0.104 -0.1744 -0.5286  1.9835
    1R01    Ad4  212   4.171   0.756   0.179 -0.6352 -0.2866 -0.2292
    1R01    Ad5  213   4.218   0.617   0.128  0.1557  0.6454 -0.7263
    1R01    Ad6  214   4.138   0.539   0.138 -1.6323 -1.3732 -0.4866
    1R01    Ad7  215   4.306   0.577   0.187  1.9224  1.6324  1.3998
    1R01    Ad8  216   4.250   0.614   0.027  2.7429 -0.0311 -0.4413
    1R01    Ad9  217   4.144   0.764   0.328  0.3021 -0.0586 -0.2151
    1R01    Ada  218   4.242   0.843   0.387  0.0559 -0.3923  0.1702
    1R01    Adb  219   4.239   0.860   0.530 -0.1661 -0.3674 -0.2272
    1R01    Adc  220   4.327   0.906   0.579  1.2434 -2.2134  1.5313
    1R01    Add  221   4.128   0.811   0.597  0.1391 -0.0285  0.0138
    1R01    Ade  222   4.080   0.774   0.740 -0.1926 -0.1905  0.1877
    1R01    Adf  223   4.027   0.857   0.790 -0.2315  2.0478 -3.2262
    1R01    Ae0  224   3.967   0.692   0.662 -0.4947 -0.3075 -0.2676
    1R01    Ae1  225   3.871   0.740   0.670  1.1601 -1.0598  0.7941
    1R01    Ae2  226   3.986   0.545   0.714  0.5682 -0.5004 -0.2143
    1R01    Ae3  227   3.937   0.470   0.648  2.2908 -0.3080 -0.1258
    1R01    Ae4  228   3.933   0.564   0.863 -0.3373 -0.0541 -0.4096
    1R01    Ae5  229   3.836   0.613   0.859  0.6380  2.4804 -0.6542
    1R01    Ae6  230   4.046   0.641   0.947  0.0285 -0.3851 -0.2882
    1R01    Ae7  231   4.018   0.742   0.999  1.9233  0.0435 -0.2259
    1R01    Ae8  232   4.152   0.666   0.835  1.0025  0.7608 -0.0138
    1R01    Ae9  233   4.251   0.690   0.861  1.3715  0.0637  2.6674
    1R01    Aea  234   4.142   0.545   0.740  0.8924  0.0500  0.3878
    1R01    Aeb  235   4.197   0.552   0.648  2.2687 -0.3381 -0.9783
    1R01    Aec  236   4.178   0.452   0.795  0.3473 -1.9639  0.3029
    1R01    Aed  237   4.039   0.734   0.536 -0.3235 -0.0613 -0.8986
    1R01    Aee  238   4.035   0.711   0.397 -0.5388  0.1277 -1.2990
    1R01    Aef  239   3.951   0.653   0.363  2.3851  0.1035 -0.5851
    1R01    Af0  240   4.330   0.902   0.284 -0.8204  0.0271  0.3566
    1R01    Af1  241   4.290   0.855   0.153 -0.2314  1.0020  0.3669
    1R01    Af2  242   4.350   0.899   0.032 -0.0373  0.0895 -0.1496
    1R01    Af3  243   4.304   0.873  -0.066 -0.0855 -0.9337  1.3750
    1R01    Af4  244   4.458   0.994   0.054 -0.6573 -0.7003 -0.4310
    1R01    Af5  245   4.552   1.091  -0.020  0.6528 -0.1862  0.0105
    1R01    Af6  246   4.613   1.027  -0.090 -0.3549 -0.6481  0.5735
    1R01    Af7  247   4.613   1.130   0.125 -0.0589 -0.3678  0.2692
    1R01    Af8  248   4.715   1.082   0.139 -0.6953 -0.1421 -1.8337
    1R01    Af9  249   4.622   1.292   0.131 -0.7744  0.2172 -0.1378
    1R01    Afa  250   4.698   1.336   0.195  0.3481  0.0299  1.9180
    1R01    Afb  251   4.478   1.346   0.138  0.5628  0.2608 -0.0150
    1R01    Afc  252   4.485   1.455   0.162 -0.2803 -0.1718  2.5622
    1R01    Afd  253   4.351   1.291   0.203 -0.3023  0.3528  0.0930
    1R01    Afe  254   4.301   1.249   0.075  0.1393 -0.1218 -0.2820
    1R01    Aff  255   4.169   1.187   0.066 -0.2348  0.0209 -0.3844
    1R01   A100  256   4.100   1.163  -0.064 -0.5176  0.4579  0.0471
    1R01   A101  257   4.166   1.176  -0.151 -0.7465  2.0887 -0.5157
    1R01   A102  258   4.025   1.239  -0.068 -1.5725 -0.8494  1.3155
    1R01   A103  259   4.047   1.063  -0.065  0.3082  0.9765 -2.6420
    1R01   A104  260   4.107   1.178   0.192  0.8750 -1.0929  0.2150
    1R01   A105  261   4.160   1.206   0.312 -0.2962  0.0090  0.1358
    1R01   A106  262   4.287   1.267   0.332 -0.1106  0.1750  0.3086
    1R01   A107  263   4.319   1.342   0.464 -0.4444  0.1099 -0.2344
    1R01   A108  264   4.321   1.282   0.558  3.8213  0.3309  0.2530
    1R01   A109  265   4.414   1.391   0.454 -1.2130  1.6201  0.7432
    1R01   A10a  266   4.246   1.424   0.476  1.3849  2.7054 -1.3735
    1R01   A10b  267   4.413   1.308  -0.003 -0.3324 -0.0632 -0.8410
    1R01   A10c  268   4.387   1.399  -0.061 -0.4018 -1.6559 -1.0673
    1R01   A10d  269   4.530   1.236  -0.085 -0.0328  0.2052  0.4541
    1R01   A10e  270   4.518   1.232  -0.191  2.5318 -1.1067 -0.4239
    1R01   A10f  271   4.649   1.319  -0.026  0.8418  0.6421 -0.0813
    1R01   A110  272   4.635   1.426  -0.045  0.6041 -1.5415  0.6913
    1R01   A111  273   4.745   1.281  -0.054  1.1046  1.0750  2.7555
    1R01   A112  274   4.508   1.029   0.176 -0.2020 -0.2125 -0.5010
    1R01   A113  275   4.454   0.976   0.300 -0.2764  0.1170 -0.0597
    1R01   A114  276   4.487   1.004   0.393 -1.6779 -1.4279 -0.8827
    1R01   A115  277   3.288   4.003   0.686  0.2293 -0.4899  0.2045
    1R01   A116  278   3.317   3.905   0.663 -2.0536  1.7943  0.3558
    1R01   A117  279   3.183   4.024   0.661 -1.1995  2.6832  1.0816
    1R01   A118  280   3.298   4.025   0.799  2.5936 -2.6602  0.4999
    1R01   A119  281   3.392   4.094   0.613 -0.4135  0.5062  1.2569
    1R01   A11a  282   3.356   4.098   0.465 -0.2258  0.0691  0.6582
    1R01   A11b  283   3.389   4.012   0.411 -0.3898 -1.5178  1.0863
    1R01   A11c  284   3.404   4.189   0.424 -3.3035  0.3911  1.0290
    1R01   A11d  285   3.245   4.116   0.454 -1.1326 -0.1729 -1.2337
    1R01   A11e  286   3.541   4.046   0.625  0.9381  0.2397  0.3288
    1R01   A11f  287   3.612   4.161   0.667  0.4119 -0.0730  0.2329
    1R01   A120  288   3.752   4.171   0.657  0.3623 -0.0559 -0.3667
    1R01   A121  289   3.809   4.262   0.688 -1.9321  1.1504  1.0769
    1R01   A122  290   3.806   4.047   0.633  0.2989 -0.1592  0.1538
    1R01   A123  291   3.942   4.001   0.581  0.9508 -0.1171  1.1622
    1R01   A124  292   4.010   4.001   0.666 -0.3857  2.3986 -1.8996
    1R01   A125  293   3.872   3.855   0.549 -0.6700 -0.3558 -0.0545
    1R01   A126  294   3.911   3.784   0.613 -2.2620  1.1461 -2.3182
    1R01   A127  295   3.886   3.833   0.394 -0.0260  0.5138  0.4527
    1R01   A128  296   3.815   3.760   0.358 -0.4654 -2.6676 -1.1891
    1R01   A129  297   4.039   3.804   0.381 -0.4108 -0.3633  0.4614
    1R01   A12a  298   4.072   3.722   0.447 -0.5733 -2.3153 -3.2842
    1R01   A12b  299   4.112   3.944   0.416  0.2337 -0.0016  0.3126
    1R01   A12c  300   4.174   3.941   0.506 -0.7806 -0.2210  1.3517
    1R01   A12d  301   4.002   4.048   0.441 -0.2347 -0.2479  0.1194
    1R01   A12e  302   4.036   4.152   0.419  2.8828 -0.5669 -0.7744
    1R01   A12f  303   3.890   3.982   0.348 -0.0118 -0.6690  0.8529
    1R01   A130  304   3.799   4.043   0.368 -1.5793  1.3193  1.6513
    1R01   A131  305   3.912   3.989   0.241 -0.8700 -0.2405 -0.1760
    1R01   A132  306   3.743   3.927   0.598  0.6249  0.1370 -0.9748
    1R01   A133  307   3.604   3.918   0.590  0.4397  0.5872 -0.3721
    1R01   A134  308   3.548   3.827   0.561 -1.3328  1.9860 -0.2436
    1R01   A135  309   3.516   4.266   0.695  0.4538 -0.3024  0.6251
    1R01   A136  310   3.385   4.232   0.670  0.2076  0.6275  0.5619
    1R01   A137  311   3.271   4.315   0.712  0.2462 -0.0364  0.3652
    1R01   A138  312   3.168   4.280   0.711  1.0618 -1.1993  0.5893
    1R01   A139  313   3.312   4.426   0.787  0.1899  0.0995 -0.0228
    1R01   A13a  314   3.269   4.523   0.898 -0.3969 -0.0269  0.8806
    1R01   A13b  315   3.209   4.604   0.847  0.6070 -0.0299 -0.4015
    1R01   A13c  316   3.419   4.558   0.915 -0.5134  0.3277  0.0352
    1R01   A13d  317   3.441   4.661   0.893 -0.4830 -1.0212  2.5322
    1R01   A13e  318   3.454   4.545   1.065  0.2412  0.0188 -0.7783
    1R01   A13f  319   3.553   4.587   1.101  3.1565 -1.8989 -0.7940
    1R01   A140  320   3.423   4.396   1.105 -0.7855 -0.3367 -0.0484
    1R01   A141  321   3.479   4.382   1.198 -1.8782  0.0507 -1.8103
    1R01   A142  322   3.430   4.261   1.029  0.4817 -0.2692 -0.6331
    1R01   A143  323   3.295   4.246   1.050 -0.0534  0.9789 -0.1074
    1R01   A144  324   3.245   4.123   1.091 -0.2972  0.0012  0.2941
    1R01   A145  325   3.127   4.104   1.188 -0.7812 -0.1119 -0.3007
    1R01   A146  326   3.080   4.007   1.172  1.1008 -1.2720 -0.0729
    1R01   A147  327   3.043   4.170   1.165 -3.0607  0.7359 -1.1084
    1R01   A148  328   3.165   4.116   1.285  1.4768  1.6841 -0.6277
    1R01   A149  329   3.335   4.019   1.069 -0.6666 -0.1518  0.7251
    1R01   A14a  330   3.473   4.035   1.034 -0.6179  0.4198 -0.1273
    1R01   A14b  331   3.531   4.162   1.027 -0.2019 -0.4437  0.1122
    1R01   A14c  332   3.682   4.186   1.050  0.0856  0.3365 -0.0828
    1R01   A14d  333   3.709   4.137   1.142 -1.0215  2.0867  1.7014
    1R01   A14e  334   3.746   4.160   0.966 -2.4255  1.2407 -2.8118
    1R01   A14f  335   3.700   4.291   1.081 -0.2214  1.3982  1.8267
    1R01   A150  336   3.270   4.378   1.112  0.2690  0.4613  0.4971
    1R01   A151  337   3.250   4.378   1.219  1.5679  2.0941  2.0585
    1R01   A152  338   3.217   4.513   1.047 -0.0758  1.3431 -0.5452
    1R01   A153  339   3.113   4.537   1.063  1.1791  2.8518 -0.0439
    1R01   A154  340   3.316   4.611   1.121  0.4410  0.1037  1.1029
    1R01   A155  341   3.303   4.600   1.233 -1.4041  0.6158  3.1707
    1R01   A156  342   3.308   4.717   1.091  0.4259 -1.7714 -3.8632
    1R01   A157  343   3.447   4.461   0.803  0.8207  0.6513  0.1383
    1R01   A158  344   3.553   4.391   0.754 -0.1137  0.0722 -0.5181
    1R01   A159  345   3.658   4.421   0.775  1.8439 -0.3159  0.6387
    1R01   A15a  346   4.237   3.418   4.036  0.0608 -0.7861 -0.5095
    1R01   A15b  347   4.282   3.491   3.964  1.0269  1.9402  0.1979
    1R01   A15c  348   4.326   3.386   4.086  1.7959 -1.3277 -0.2038
    1R01   A15d  349   4.175   3.470   4.109 -0.6576  1.1045  0.4876
    1R01   A15e  350   4.165   3.309   3.968  0.1078 -0.3211  0.4617
    1R01   A15f  351   4.059   3.369   3.878 -0.0083 -0.0138 -0.0158
    1R01   A160  352   4.101   3.436   3.800 -1.4168 -3.3071  0.7808
    1R01   A161  353   3.993   3.435   3.931 -1.7241  2.2831  2.3260
    1R01   A162  354   4.007   3.285   3.821 -0.2406 -0.4260  0.4410
    1R01   A163  355   4.103   3.217   4.076 -0.6058  0.0420 -0.1213
    1R01   A164  356   4.175   3.095   4.070  0.2872 -0.1235 -0.1304
    1R01   A165  357   4.146   2.997   4.173 -0.0855 -0.0745  0.4659
    1R01   A166  358   4.186   2.895   4.184  1.7712 -0.2551  0.3414
    1R01   A167  359   4.064   3.033   4.279  0.5007 -0.5013 -0.4312
    1R01   A168  360   3.978   2.971   4.385 -1.0531 -0.1952  0.1922
    1R01   A169  361   4.022   2.959   4.479  0.1103 -0.3017  1.8887
    1R01   A16a  362   3.900   3.111   4.375 -0.3259 -0.3313  0.0342
    1R01   A16b  363   3.905   3.189   4.456  0.5582  0.2771 -1.6054
    1R01   A16c  364   3.757   3.070   4.344 -0.4721  0.1042 -0.6251
    1R01   A16d  365   3.684   3.149   4.312 -1.1616  0.3437  0.1171
    1R01   A16e  366   3.719   2.995   4.476  0.2000  0.1866  0.0817
    1R01   A16f  367   3.738   3.056   4.564  1.4465 -1.0592 -1.8272
    1R01   A170  368   3.783   2.851   4.481 -0.0290  0.5374 -0.5796
    1R01   A171  369   3.844   2.829   4.566  0.6123 -0.5958 -1.9731
    1R01   A172  370   3.882   2.855   4.357 -0.1684  0.4698 -0.5523
    1R01   A173  371   3.915   2.759   4.314  1.7921  0.2940  1.4062
    1R01   A174  372   3.794   2.938   4.256 -0.4953  0.6004  0.1064
    1R01   A175  373   3.707   2.880   4.223  0.9434  1.0096  0.5084
    1R01   A176  374   3.847   2.959   4.166 -2.5366 -0.0645 -3.3212
    1R01   A177  375   3.994   3.150   4.278 -0.6887  0.0569 -0.4887
    1R01   A178  376   4.005   3.245   4.176  1.2529  0.1108  0.5817
    1R01   A179  377   3.938   3.330   4.175  0.3061  1.8629  2.3055
    1R01   A17a  378   4.260   3.091   3.951  0.1048 -0.3029  0.3524
    1R01   A17b  379   4.261   3.215   3.887  0.5477 -0.3521 -0.3340
    1R01   A17c  380   4.315   3.233   3.756 -0.1188 -0.0496 -0.5449
    1R01   A17d  381   4.305   3.320   3.699  0.8761 -1.0525 -1.2445
    1R01   A17e  382   4.380   3.120   3.707 -0.3870 -0.3714 -0.0580
    1R01   A17f  383   4.418   3.065   3.570  0.4312  0.1150 -0.1335
    1R01   A180  384   4.334   3.088   3.504 -0.0586 -0.2965  2.2381
    1R01   A181  385   4.413   2.926   3.637 -0.4200  0.0619  1.0161
    1R01   A182  386   4.331   2.855   3.606  1.2004  0.3179 -3.6623
    1R01   A183  387   4.549   2.850   3.603  0.0895 -0.7851  0.1241
    1R01   A184  388   4.565   2.739   3.594  0.1923 -2.4162 -0.4594
    1R01   A185  389   4.671   2.935   3.661 -0.4280 -0.2117  0.2556
    1R01   A186  390   4.759   2.873   3.653  1.3366  0.2866  0.0696
    1R01   A187  391   4.675   3.028   3.782 -0.0714  0.1295 -0.3189
    1R01   A188  392   4.680   3.139   3.706  1.0437 -0.1090 -0.2847
    1R01   A189  393   4.651   3.265   3.750 -0.5070 -0.1191 -0.2919
    1R01   A18a  394   4.644   3.379   3.655  0.3966 -0.0307 -0.1102
    1R01   A18b  395   4.649   3.473   3.708 -0.6852 -3.3220 -0.3798
    1R01   A18c  396   4.716   3.390   3.576 -0.9855 -1.5878 -0.7672
    1R01   A18d  397   4.554   3.378   3.589  1.7298  1.8485 -3.5603
    1R01   A18e  398   4.661   3.268   3.893  0.0588 -0.2400  0.0523
    1R01   A18f  399   4.669   3.150   3.980 -0.4595  0.3899 -0.2236
    1R01   A190  400   4.684   3.022   3.924  0.4098  0.0160 -0.2621
    1R01   A191  401   4.657   2.894   4.005 -0.3338 -0.4861 -0.7011
    1R01   A192  402   4.739   2.857   4.071 -0.4953 -0.8903 -0.0759
    1R01   A193  403   4.622   2.814   3.939 -4.4436  1.9625 -0.0133
    1R01   A194  404   4.573   2.902   4.081  0.0811 -2.4863  1.2609
    1R01   A195  405   4.674   3.067   3.576 -0.4140 -0.5174 -0.5877
    1R01   A196  406   4.762   3.086   3.523 -1.6708  1.4079  1.5304
    1R01   A197  407   4.552   3.064   3.483  0.0477  0.1878  0.1380
    1R01   A198  408   4.551   3.136   3.397 -0.6708  0.8758  1.4135
    1R01   A199  409   4.556   2.909   3.454  0.8199  0.0937 -0.5825
    1R01   A19a  410   4.644   2.876   3.401 -0.8666  4.0970  0.9838
    1R01   A19b  411   4.475   2.886   3.386  0.2467 -0.1212  0.4390
    1R01   A19c  412   4.371   2.999   3.766  0.1300  0.2187 -0.2721
    1R01   A19d  413   4.314   2.976   3.893  0.9215  0.4400 -0.1762
    1R01   A19e  414   4.307   2.872   3.931  1.8974  1.4015  0.3480
    1R01   A19f  415   3.358   1.642   3.560 -0.2806 -0.2443 -0.4478
    1R01   A1a0  416   3.463   1.627   3.573 -1.4741 -2.4927  0.0069
    1R01   A1a1  417   3.339   1.613   3.457  1.0355  2.8344 -0.5076
    1R01   A1a2  418   3.343   1.752   3.569  0.3309 -0.7556 -0.8884
    1R01   A1a3  419   3.296   1.564   3.678 -0.0394  0.7718  0.6627
    1R01   A1a4  420   3.178   1.476   3.624 -0.0227 -0.8697  0.5665
    1R01   A1a5  421   3.201   1.375   3.584 -0.7142 -0.0987 -1.0647
    1R01   A1a6  422   3.123   1.530   3.555  1.6364  0.1665  1.6611
    1R01   A1a7  423   3.115   1.451   3.707 -0.9801 -1.3615 -0.1305
    1R01   A1a8  424   3.222   1.661   3.773 -0.1994 -0.0255 -0.1555
    1R01   A1a9  425   3.254   1.627   3.908 -0.5047 -0.6802 -1.1277
    1R01   A1aa  426   3.182   1.687   4.017  0.0965 -0.3179 -0.0559
    1R01   A1ab  427   3.194   1.662   4.122  0.4089  0.5791 -0.0034
    1R01   A1ac  428   3.080   1.770   3.982  0.0904 -0.0600 -0.3372
    1R01   A1ad  429   2.946   1.831   4.038  0.3086  0.8365  0.4135
    1R01   A1ae  430   2.961   1.910   4.120 -0.0343 -1.5868  3.7426
    1R01   A1af  431   2.932   1.883   3.893  0.2171 -0.1845  1.0509
    1R01   A1b0  432   2.935   1.994   3.870 -1.1622  0.8548  2.1371
    1R01   A1b1  433   2.795   1.825   3.849  0.9220  0.6695 -0.6683
    1R01   A1b2  434   2.780   1.821   3.740 -0.5525 -0.5391  1.6236
    1R01   A1b3  435   2.698   1.900   3.937 -0.7356 -0.6002 -0.0673
    1R01   A1b4  436   2.711   2.007   3.930  2.7752  0.7707 -0.7839
    1R01   A1b5  437   2.702   1.839   4.075  0.5534  0.2810  0.0847
    1R01   A1b6  438   2.714   1.914   4.155 -1.5120  1.2968 -1.9993
    1R01   A1b7  439   2.817   1.736   4.068  0.5966 -0.6990  0.7516
    1R01   A1b8  440   2.835   1.657   4.144  0.9916 -0.1987  0.9641
    1R01   A1b9  441   2.800   1.683   3.923  0.3174  0.6620  0.1682
    1R01   A1ba  442   2.887   1.621   3.903  0.7736  0.0162  0.2717
    1R01   A1bb  443   2.710   1.629   3.898  0.4587  3.4270 -0.3276
    1R01   A1bc  444   3.060   1.821   3.860 -0.5123 -0.4435  0.1842
    1R01   A1bd  445   3.118   1.760   3.744  0.6516  0.1193 -0.3408
    1R01   A1be  446   3.071   1.781   3.651  0.3550 -0.1832  0.7574
    1R01   A1bf  447   3.372   1.535   3.907 -0.0099 -0.1277  0.4001
    1R01   A1c0  448   3.400   1.494   3.767  0.0166 -0.0249  0.0502
    1R01   A1c1  449   3.494   1.394   3.735  0.1922  0.1856 -0.3269
    1R01   A1c2  450   3.508   1.354   3.634 -0.9603  1.0270  0.0508
    1R01   A1c3  451   3.562   1.340   3.841  0.1004  0.6010 -0.0833
    1R01   A1c4  452   3.612   1.198   3.879 -0.1188  0.6659 -0.1105
    1R01   A1c5  453   3.540   1.120   3.848 -1.0612  1.5362  0.6346
    1R01   A1c6  454   3.576   1.241   4.033 -0.3572  0.3892 -0.0100
    1R01   A1c7  455   3.499   1.180   4.062 -1.4260  0.7371 -2.6146
    1R01   A1c8  456   3.706   1.220   4.129 -0.0116 -0.1190 -0.4955
    1R01   A1c9  457   3.685   1.221   4.234 -0.7161  3.1015 -2.2882
    1R01   A1ca  458   3.818   1.317   4.066  0.3705  0.0451  0.1646
    1R01   A1cb  459   3.897   1.308   4.141 -0.9842 -1.1688 -0.9488
    1R01   A1cc  460   3.818   1.453   4.000  0.4543 -0.3726 -0.7227
    1R01   A1cd  461   3.849   1.406   3.875 -0.6889 -0.3780 -0.5517
    1R01   A1ce  462   3.864   1.492   3.765 -0.0562  0.7329  0.7071
    1R01   A1cf  463   3.876   1.428   3.634  0.2774  0.8276  0.4332
    1R01   A1d0  464   3.778   1.427   3.580 -0.6700  2.3097  0.2854
    1R01   A1d1  465   3.947   1.470   3.565  0.2064 -0.4793 -0.3739
    1R01   A1d2  466   3.897   1.324   3.645 -0.8891  1.9303 -2.0924
    1R01   A1d3  467   3.866   1.626   3.804  0.0405  0.2730 -0.1206
    1R01   A1d4  468   3.845   1.668   3.931 -0.4766  0.5604 -0.5445
    1R01   A1d5  469   3.811   1.583   4.040  0.6032 -0.0161 -0.7754
    1R01   A1d6  470   3.804   1.634   4.186  0.6696 -0.3828 -0.1956
    1R01   A1d7  471   3.896   1.684   4.224  2.4493 -1.2333  1.9196
    1R01   A1d8  472   3.794   1.546   4.250 -0.1320 -2.0180  0.2961
    1R01   A1d9  473   3.715   1.698   4.193  0.5477 -1.0782 -2.8690
    1R01   A1da  474   3.846   1.261   3.921  0.1085 -0.8120  0.5875
    1R01   A1db  475   3.946   1.223   3.923  0.1684  0.4012  3.8045
    1R01   A1dc  476   3.757   1.142   3.896  0.4103 -0.2869  0.8420
    1R01   A1dd  477   3.790   1.082   3.814  0.3293  0.5857 -0.5474
    1R01   A1de  478   3.753   1.085   4.052  0.4598 -0.6692  0.4082
    1R01   A1df  479   3.845   1.046   4.092  2.8393 -1.5360 -0.8501
    1R01   A1e0  480   3.673   1.019   4.080 -1.6411  0.5283 -2.1626
    1R01   A1e1  481   3.532   1.374   3.973 -0.3782  0.4500  1.0165
    1R01   A1e2  482   3.437   1.469   4.010 -0.1514  0.1343 -0.1830
    1R01   A1e3  483   3.398   1.476   4.111 -0.0265 -3.9831 -0.3552
    1R01   A1e4  484   4.484   2.101  -0.360  0.5911  0.4891  0.3050
    1R01   A1e5  485   4.488   2.205  -0.385  1.2113 -1.2518  0.5174
    1R01   A1e6  486   4.583   2.056  -0.358  1.4403  1.1889  2.2693
    1R01   A1e7  487   4.422   2.050  -0.435 -1.7630 -0.8047 -2.0121
    1R01   A1e8  488   4.423   2.075  -0.223 -0.1077 -0.6074 -0.1397
    1R01   A1e9  489   4.433   1.931  -0.178  0.2432 -0.2427  0.4079
    1R01   A1ea  490   4.532   1.894  -0.191  0.2755 -1.4213  0.0676
    1R01   A1eb  491   4.398   1.911  -0.073 -0.6028  0.9838 -1.0367
    1R01   A1ec  492   4.365   1.872  -0.243  0.4632 -2.6999  1.4991
    1R01   A1ed  493   4.276   2.132  -0.200  0.3817 -0.4766 -0.6091
    1R01   A1ee  494   4.276   2.200  -0.074 -0.4280 -0.0656 -0.5561
    1R01   A1ef  495   4.159   2.251  -0.013  0.2697  0.1172 -0.5995
    1R01   A1f0  496   4.158   2.310   0.085  1.0457  0.8715  1.8885
    1R01   A1f1  497   4.046   2.226  -0.087 -1.0439 -0.1948 -0.0931
    1R01   A1f2  498   3.896   2.233  -0.083  0.3561  0.0675 -0.1709
    1R01   A1f3  499   3.866   2.340  -0.099  1.8584  0.2496  1.4848
    1R01   A1f4  500   3.894   2.146  -0.211  0.0591  0.1237  0.7331
    1R01   A1f5  501   3.854   2.184  -0.305 -0.2100 -2.8356 -0.2244
    1R01   A1f6  502   3.805   2.018  -0.175 -0.4205 -0.3541  0.3674
    1R01   A1f7  503   3.827   1.925  -0.231  2.1799 -0.5143  1.3319
    1R01   A1f8  504   3.659   2.078  -0.168 -0.3066  0.1384 -0.4058
    1R01   A1f9  505   3.637   2.105  -0.276 -0.7251 -1.8525 -0.3224
    1R01   A1fa  506   3.662   2.179  -0.039  0.3111  0.4086 -0.8333
    1R01   A1fb  507   3.634   2.281  -0.067 -1.7189 -0.1572  0.2362
    1R01   A1fc  508   3.809   2.157   0.023 -0.3832  0.3063 -0.6752
    1R01   A1fd  509   3.825   2.186   0.129  0.3443  2.3337 -3.2942
    1R01   A1fe  510   3.844   2.008  -0.023 -0.1275  0.3333  0.0092
    1R01   A1ff  511   3.783   1.937   0.036 -1.3017  0.5302 -1.0025
    1R01   A200  512   3.950   1.987  -0.002 -0.8049  2.5368 -1.0388
    1R01   A201  513   4.045   2.146  -0.197  0.8095 -0.6600  0.0144
    1R01   A202  514   4.155   2.097  -0.262 -0.7393  0.0084 -0.0455
    1R01   A203  515   4.144   2.046  -0.354 -4.0602 -1.8624  1.4444
    1R01   A204  516   4.414   2.212  -0.027 -0.0983 -0.0180  0.5288
    1R01   A205  517   4.505   2.154  -0.120  0.0785 -0.1620 -0.1185
    1R01   A206  518   4.644   2.187  -0.119  0.0957 -0.4518  0.0619
    1R01   A207  519   4.720   2.154  -0.184 -2.1764 -2.5601 -0.2745
    1R01   A208  520   4.684   2.262  -0.009 -0.6665  0.9197  0.0671
    1R01   A209  521   4.800   2.332   0.049 -0.3334 -0.8955 -0.1990
    1R01   A20a  522   4.870   2.265   0.094 -0.1719  1.0496 -0.0856
    1R01   A20b  523   4.697   2.392   0.159 -0.0477  0.7119  0.3513
    1R01   A20c  524   4.710   2.365   0.265  1.4590 -1.0442  1.5513
    1R01   A20d  525   4.707   2.540   0.146  0.5097 -0.2116  0.1281
    1R01   A20e  526   4.677   2.598   0.236  0.6854  0.3142 -0.8976
    1R01   A20f  527   4.642   2.580   0.006  0.3213  0.1138 -0.2499
    1R01   A210  528   4.616   2.687   0.015 -2.7871 -1.5351 -0.2464
    1R01   A211  529   4.545   2.511  -0.086  0.3560  0.5627 -0.0172
    1R01   A212  530   4.646   2.480  -0.187  0.1191  0.3212  0.6266
    1R01   A213  531   4.627   2.504  -0.323  0.1410  0.2415  0.4301
    1R01   A214  532   4.739   2.496  -0.424  0.4495 -0.5179  0.0302
    1R01   A215  533   4.759   2.595  -0.465  1.6009 -0.7302 -0.6894
    1R01   A216  534   4.709   2.421  -0.502 -3.4115  1.9098 -1.0185
    1R01   A217  535   4.835   2.472  -0.376  0.8541  1.2133 -0.7037
    1R01   A218  536   4.495   2.528  -0.359 -0.5026 -0.8381 -0.2646
    1R01   A219  537   4.393   2.533  -0.266 -0.0221 -0.7054  0.0475
    1R01   A21a  538   4.407   2.532  -0.120  0.0319 -0.0924  0.0624
    1R01   A21b  539   4.309   2.588  -0.018 -0.4937 -0.5085 -0.1100
    1R01   A21c  540   4.290   2.504   0.050 -0.8359  1.6924 -1.1121
    1R01   A21d  541   4.347   2.669   0.035 -0.2211 -0.5287 -1.5584
    1R01   A21e  542   4.213   2.623  -0.061 -1.1205  1.2681 -0.8614
    1R01   A21f  543   4.753   2.537  -0.096 -0.1263 -0.4214  0.4336
    1R01   A220  544   4.794   2.620  -0.154  0.0556  0.4034  0.6829
    1R01   A221  545   4.869   2.457  -0.025 -0.2725  1.0582  0.0579
    1R01   A222  546   4.947   2.452  -0.094 -1.9902  0.7885  0.7634
    1R01   A223  547   4.865   2.546   0.103  0.2122  0.0316  0.9636
    1R01   A224  548   4.942   2.517   0.179  1.6915 -1.6631  1.1101
    1R01   A225  549   4.894   2.645   0.079 -0.1491  0.6754  0.7427
    1R01   A226  550   4.599   2.303   0.091  0.2577  0.1874  0.3412
    1R01   A227  551   4.463   2.286   0.080  0.1651  0.1513 -0.9782
    1R01   A228  552   4.398   2.330   0.155 -2.1006  0.6631  0.0195
    1R01   A229  553   3.562   0.676   1.145  0.8529  0.9369  0.9693
    1R01   A22a  554   3.652   0.715   1.107  2.4018  1.4263 -2.9474
    1R01   A22b  555   3.536   0.580   1.095 -1.9085 -0.5284  0.4661
    1R01   A22c  556   3.481   0.746   1.123  1.5865  3.3561  1.9411
    1R01   A22d  557   3.575   0.656   1.297 -0.3337 -0.1752 -0.2944
    1R01   A22e  558   3.435   0.620   1.357  0.1184  0.2261  0.1838
    1R01   A22f  559   3.417   0.522   1.316  0.3527  0.5825  0.5900
    1R01   A230  560   3.353   0.685   1.321  1.1475 -0.8925  1.0232
    1R01   A231  561   3.431   0.607   1.467  0.1678  1.2616  0.3106
    1R01   A232  562   3.616   0.788   1.363 -0.9086 -0.0982 -1.3288
    1R01   A233  563   3.744   0.768   1.424 -0.2489 -0.0517 -0.4861
    1R01   A234  564   3.792   0.874   1.504 -0.0835  0.1931 -0.4091
    1R01   A235  565   3.888   0.866   1.550  3.2362 -0.2078 -2.2602
    1R01   A236  566   3.718   0.990   1.509 -0.0610 -0.8759 -0.0865
    1R01   A237  567   3.725   1.135   1.554  0.2687 -0.2066 -0.1686
    1R01   A238  568   3.810   1.186   1.510  1.9402 -0.3641  2.0115
    1R01   A239  569   3.587   1.154   1.491  0.0010  0.3633 -0.1778
    1R01   A23a  570   3.591   1.207   1.393 -1.2804  2.7040 -0.7662
    1R01   A23b  571   3.494   1.215   1.601  0.0056 -0.4423 -0.4506
    1R01   A23c  572   3.385   1.201   1.589 -1.2201  1.3283  1.7701
    1R01   A23d  573   3.549   1.362   1.626 -0.0460  0.2522  0.6712
    1R01   A23e  574   3.547   1.429   1.539 -0.0996 -1.5047  0.3164
    1R01   A23f  575   3.690   1.347   1.682 -0.3263 -0.1708 -0.2044
    1R01   A240  576   3.768   1.390   1.617 -1.5682 -0.2985  0.1886
    1R01   A241  577   3.710   1.191   1.701  0.0375 -0.5426  0.8494
    1R01   A242  578   3.778   1.161   1.781 -2.2812  0.9528 -1.1246
    1R01   A243  579   3.561   1.147   1.726  0.4496 -0.4936  0.7982
    1R01   A244  580   3.547   1.043   1.728  3.1967  1.7305 -0.4283
    1R01   A245  581   3.527   1.179   1.817  1.6598 -0.4977 -2.3486
    1R01   A246  582   3.598   1.008   1.451  0.8490  0.1213  0.6816
    1R01   A247  583   3.543   0.910   1.370  0.3977  0.2928 -0.3399
    1R01   A248  584   3.454   0.930   1.313  0.0680  2.5051  4.7365
    1R01   A249  585   3.790   0.631   1.406  0.1204 -0.2950 -0.6506
    1R01   A24a  586   3.684   0.561   1.335 -0.1984  0.0631  0.5807
    1R01   A24b  587   3.676   0.422   1.324  0.3014  0.2625  0.1165
    1R01   A24c  588   3.596   0.368   1.282 -1.8844  2.1175 -2.2097
    1R01   A24d  589   3.787   0.358   1.377  0.2147 -0.2728  0.1144
    1R01   A24e  590   3.816   0.222   1.429  0.2465 -0.4441  0.4541
    1R01   A24f  591   3.742   0.181   1.495 -0.8049  0.1407  0.2598
    1R01   A250  592   3.939   0.287   1.498 -0.4558  0.2258  0.4050
    1R01   A251  593   3.941   0.295   1.610 -0.6283 -2.1184  1.4706
    1R01   A252  594   4.062   0.205   1.452 -0.0319 -0.3771 -0.0140
    1R01   A253  595   4.158   0.216   1.503  1.2708 -2.7038  0.6308
    1R01   A254  596   4.072   0.234   1.295  0.5921  0.0513  0.8108
    1R01   A255  597   4.160   0.187   1.257 -1.3324  0.8017  0.4590
    1R01   A256  598   4.040   0.351   1.202  0.9029 -0.0730  1.1396
    1R01   A257  599   3.933   0.286   1.142 -0.1367 -0.5540  0.4751
    1R01   A258  600   3.884   0.332   1.013 -0.7175  0.4243  0.0600
    1R01   A259  601   3.797   0.250   0.919 -0.0945  0.2669  0.2081
    1R01   A25a  602   3.787   0.291   0.818  1.4375  0.1417 -1.6273
    1R01   A25b  603   3.826   0.149   0.908 -1.6643  0.2238 -0.3674
    1R01   A25c  604   3.693   0.249   0.955 -1.5916  1.3962 -0.3758
    1R01   A25d  605   3.942   0.455   0.975 -0.3389 -0.0193 -0.7074
    1R01   A25e  606   4.045   0.516   1.041  0.2146  0.4356 -0.6868
    1R01   A25f  607   4.109   0.467   1.158  0.0750 -0.0609  0.0469
    1R01   A260  608   4.230   0.526   1.239 -0.5385 -0.2717 -0.1085
    1R01   A261  609   4.200   0.611   1.302 -1.1158  0.6368  2.4300
    1R01   A262  610   4.273   0.464   1.318 -0.5038  0.7109  0.2441
    1R01   A263  611   4.308   0.562   1.173 -0.4784 -1.3417  0.2176
    1R01   A264  612   3.945   0.162   1.227 -0.5140 -0.3573 -0.0202
    1R01   A265  613   3.973   0.080   1.158  1.0243 -1.6447 -1.8541
    1R01   A266  614   3.867   0.097   1.351  0.2750 -0.3736 -0.0979
    1R01   A267  615   3.790   0.021   1.327 -1.3943 -2.0118 -1.4776
    1R01   A268  616   3.994   0.065   1.446  0.1999 -0.3477  0.2625
    1R01   A269  617   4.065  -0.016   1.396  0.1325 -0.2062 -0.5320
    1R01   A26a  618   3.945   0.021   1.535 -2.0477 -3.0477 -1.8867
    1R01   A26b  619   3.888   0.417   1.442  0.3724  0.1203 -0.4340
    1R01   A26c  620   3.896   0.555   1.462 -0.1279 -0.0861  0.0535
    1R01   A26d  621   3.970   0.595   1.528  1.3849 -0.5348 -0.9230
    1R01   A26e  622   2.163   2.477   4.925 -0.2396  0.0279  0.0761
    1R01   A26f  623   2.167   2.441   4.824 -0.8466  3.1524 -0.0660
    1R01   A270  624   2.082   2.424   4.970  1.4748 -0.9901 -1.6094
    1R01   A271  625   2.256   2.434   4.967  2.7918 -2.3666 -0.0242
    1R01   A272  626   2.155   2.634   4.927 -0.9534  0.1324  0.3515
    1R01   A273  627   2.003   2.684   4.906 -0.5161  0.5512 -0.9640
    1R01   A274  628   2.004   2.787   4.871  2.1623  2.6045  0.5398
    1R01   A275  629   1.944   2.687   4.998 -2.1032  0.6495 -1.6293
    1R01   A276  630   1.938   2.622   4.835 -0.9754  1.1835 -2.3381
    1R01   A277  631   2.255   2.678   4.808  0.6327  0.1245  0.5396
    1R01   A278  632   2.326   2.788   4.864  0.7357 -0.3551  0.8835
    1R01   A279  633   2.428   2.851   4.787  0.3790  0.1240 -0.0897
    1R01   A27a  634   2.494   2.925   4.831 -1.1602 -0.0488  0.5926
    1R01   A27b  635   2.459   2.789   4.666 -0.0786 -0.9024  0.0780
    1R01   A27c  636   2.576   2.786   4.573  0.1568  0.7984  0.1288
    1R01   A27d  637   2.665   2.754   4.630  1.7869  1.5898 -0.4964
    1R01   A27e  638   2.490   2.669   4.503 -0.1664 -0.2178  0.2363
    1R01   A27f  639   2.543   2.571   4.508 -0.1175 -1.3508  0.8650
    1R01   A280  640   2.488   2.713   4.350 -0.5922 -0.0027 -0.2813
    1R01   A281  641   2.406   2.670   4.294  0.6589  2.3916  2.0399
    1R01   A282  642   2.641   2.704   4.310 -0.3200  0.3860 -0.3908
    1R01   A283  643   2.672   2.607   4.337 -0.2103 -0.5072  0.1402
    1R01   A284  644   2.714   2.821   4.384  0.4334  0.2968  0.1274
    1R01   A285  645   2.792   2.787   4.449  1.3085  1.7624 -0.3055
    1R01   A286  646   2.602   2.894   4.467 -0.0457 -0.4004  0.1586
    1R01   A287  647   2.620   2.998   4.502  2.3795  0.0313  0.2877
    1R01   A288  648   2.477   2.874   4.369  0.1670  0.1039  0.2238
    1R01   A289  649   2.477   2.923   4.277 -2.0070 -0.2884 -0.5089
    1R01   A28a  650   2.376   2.902   4.408  0.7798  3.0938  0.5928
    1R01   A28b  651   2.388   2.693   4.610 -0.3491  0.0544  0.6875
    1R01   A28c  652   2.287   2.627   4.681 -0.4110 -0.1420 -0.5059
    1R01   A28d  653   2.224   2.543   4.634 -1.4540 -2.1981 -2.1684
    1R01   A28e  654   2.300   2.806   5.010  0.1454  0.1680  0.0331
    1R01   A28f  655   2.222   2.695   5.053  0.5314  0.0768  0.3626
    1R01   A290  656   2.210   2.652   5.192 -0.1616 -0.4444 -0.0566
    1R01   A291  657   2.143   2.575   5.224 -1.6043  0.9457  0.3219
    1R01   A292  658   2.306   2.718   5.275  0.1997  0.6563 -0.1855
    1R01   A293  659   2.368   2.720   5.415  0.3250  0.0065  0.9064
    1R01   A294  660   2.302   2.756   5.490 -0.7693 -1.9714 -1.7578
    1R01   A295  661   2.459   2.842   5.355 -0.4177 -0.2004 -0.4587
    1R01   A296  662   2.431   2.932   5.414 -0.6219 -1.1510  0.3687
    1R01   A297  663   2.606   2.805   5.376 -0.3398 -1.1685 -0.3488
    1R01   A298  664   2.677   2.886   5.388  0.6194 -0.5259 -1.4528
    1R01   A299  665   2.641   2.677   5.291 -0.3556 -0.5091  0.7478
    1R01   A29a  666   2.749   2.664   5.300  1.2222  2.5100  1.3172
    1R01   A29b  667   2.584   2.627   5.158 -0.4057  0.3000  0.0221
    1R01   A29c  668   2.515   2.528   5.218 -0.1258 -0.5386 -0.0200
    1R01   A29d  669   2.499   2.402   5.158  0.2541 -0.1835  0.2950
    1R01   A29e  670   2.457   2.276   5.230  0.2372  0.2437 -0.3194
    1R01   A29f  671   2.463   2.304   5.338 -0.4554  1.5451 -2.7404
    1R01   A2a0  672   2.347   2.258   5.209  1.2935  1.0036 -0.3207
    1R01   A2a1  673   2.514   2.187   5.203 -1.0840 -0.5354 -0.5028
    1R01   A2a2  674   2.550   2.396   5.023 -0.5528  1.2356  0.6333
    1R01   A2a3  675   2.620   2.500   4.971  0.1326 -0.5760  0.2430
    1R01   A2a4  676   2.646   2.620   5.032  0.8109 -0.3395 -0.3540
    1R01   A2a5  677   2.748   2.713   4.973 -0.2662  0.1729  0.6189
    1R01   A2a6  678   2.717   2.817   4.954  2.8637 -1.5656  1.0982
    1R01   A2a7  679   2.787   2.689   4.869  1.7986 -0.3448  0.8884
    1R01   A2a8  680   2.831   2.714   5.042  1.6206  1.7904 -0.9600
    1R01   A2a9  681   2.555   2.564   5.360  0.4850 -0.0577  0.0977
    1R01   A2aa  682   2.616   2.482   5.401  2.1414 -2.8878  0.2627
    1R01   A2ab  683   2.479   2.628   5.476 -0.0375 -0.4042  0.0257
    1R01   A2ac  684   2.451   2.567   5.555  1.9186  2.7754 -2.2401
    1R01   A2ad  685   2.585   2.741   5.514  0.4826  0.1197 -0.5819
    1R01   A2ae  686   2.679   2.707   5.556  0.1127 -1.4092  0.7496
    1R01   A2af  687   2.556   2.824   5.589 -0.9147  0.8923 -1.1693
    1R01   A2b0  688   2.377   2.827   5.232 -0.5671 -0.3044  0.7039
    1R01   A2b1  689   2.378   2.876   5.102 -0.2107 -0.1815 -0.5065
    1R01   A2b2  690   2.449   2.959   5.074 -2.0495  0.6547  1.7029
    1R01   A2b3  691   0.778   2.666   3.683 -0.1217 -0.4844 -0.4745
    1R01   A2b4  692   0.860   2.607   3.645  0.4808 -1.0531  0.1880
    1R01   A2b5  693   0.793   2.654   3.789  1.7782 -0.1118  0.0187
    1R01   A2b6  694   0.678   2.617   3.663  0.2513 -0.2847 -0.6922
    1R01   A2b7  695   0.793   2.808   3.632  0.3691  0.0128  0.2261
    1R01   A2b8  696   0.718   2.910   3.718  0.3540  0.4791  0.2734
    1R01   A2b9  697   0.715   3.010   3.680 -0.3710 -0.1809  0.4772
    1R01   A2ba  698   0.769   2.908   3.812 -1.0608 -0.0035 -1.8142
    1R01   A2bb  699   0.616   2.874   3.736  1.3300  0.4811 -1.0993
    1R01   A2bc  700   0.756   2.794   3.486 -0.2589  0.4844  0.0819
    1R01   A2bd  701   0.881   2.785   3.407  0.5586 -0.7880 -0.2494
    1R01   A2be  702   0.873   2.801   3.264  0.0885  0.0947  0.1804
    1R01   A2bf  703   0.965   2.820   3.207 -0.5333 -1.1523  0.6820
    1R01   A2c0  704   0.743   2.791   3.214  0.0815 -0.5372  0.3688
    1R01   A2c1  705   0.664   2.831   3.087  0.5798 -0.0459  0.9548
    1R01   A2c2  706   0.651   2.753   3.009 -1.3111 -0.6564 -0.5038
    1R01   A2c3  707   0.539   2.840   3.182 -0.1207  0.3572 -0.0627
    1R01   A2c4  708   0.467   2.771   3.158 -0.4988  0.5621  1.8873
    1R01   A2c5  709   0.486   2.988   3.187  0.0670 -0.4785 -0.5326
    1R01   A2c6  710   0.424   3.022   3.265 -2.9801 -0.4665 -3.9183
    1R01   A2c7  711   0.429   2.994   3.037 -0.6637 -0.1696 -0.0776
    1R01   A2c8  712   0.357   2.907   3.009 -0.2410 -1.2116  0.6442
    1R01   A2c9  713   0.551   2.985   2.938 -0.5032 -0.4311 -0.1379
    1R01   A2ca  714   0.559   2.902   2.862  1.5036 -0.1785 -0.3158
    1R01   A2cb  715   0.678   2.979   3.029 -0.5418  0.6143  0.4309
    1R01   A2cc  716   0.774   3.022   2.985 -0.2244 -0.1986  0.2319
    1R01   A2cd  717   0.626   3.057   3.159 -0.6104 -0.2570  0.4778
    1R01   A2ce  718   0.625   3.168   3.140 -3.0850 -0.9180  0.0535
    1R01   A2cf  719   0.681   3.052   3.249  0.6048 -2.0448  0.6089
    1R01   A2d0  720   0.632   2.800   3.288  0.6575 -0.2956 -0.1422
    1R01   A2d1  721   0.630   2.809   3.427 -0.7609  0.7849  0.5726
    1R01   A2d2  722   0.542   2.819   3.488 -0.5264  1.6900 -0.1087
    1R01   A2d3  723   0.990   2.828   3.501  0.3142 -0.4203 -0.8006
    1R01   A2d4  724   0.942   2.850   3.630  0.4409 -0.3998 -0.2351
    1R01   A2d5  725   1.018   2.925   3.731  0.0781  0.3084  0.0548
    1R01   A2d6  726   0.978   2.963   3.825 -0.3118 -1.5848  0.3528
    1R01   A2d7  727   1.144   2.961   3.682  0.5732  0.1959 -0.2702
    1R01   A2d8  728   1.253   3.051   3.704 -0.4752  0.1915 -0.3688
    1R01   A2d9  729   1.224   3.155   3.695  1.5554  0.9841  1.4476
    1R01   A2da  730   1.316   3.014   3.561  1.0403  0.5863 -0.6890
    1R01   A2db  731   1.295   3.110   3.510 -1.8885  0.7301  3.1391
    1R01   A2dc  732   1.457   2.977   3.585  0.1249 -0.0630 -0.1516
    1R01   A2dd  733   1.514   2.973   3.491  0.8062  1.0620 -1.4502
    1R01   A2de  734   1.441   2.845   3.675  0.6168  0.6094 -0.5120
    1R01   A2df  735   1.389   2.761   3.624 -1.1733 -1.8492  1.6015
    1R01   A2e0  736   1.552   2.788   3.760 -0.5264 -0.2113  0.2812
    1R01   A2e1  737   1.511   2.841   3.883  0.6862  0.3002  0.3049
    1R01   A2e2  738   1.604   2.863   3.985 -0.0173 -0.7031 -0.1543
    1R01   A2e3  739   1.583   2.963   4.101  0.4266  0.2073  0.8825
    1R01   A2e4  740   1.629   3.060   4.076 -0.8995 -2.7068 -0.1986
    1R01   A2e5  741   1.475   2.978   4.114 -0.3419  0.5924 -1.7853
    1R01   A2e6  742   1.623   2.923   4.196 -1.0355  0.4926 -0.3432
    1R01   A2e7  743   1.725   2.791   3.969  0.7060 -0.7530 -0.3112
    1R01   A2e8  744   1.758   2.717   3.859 -0.8459 -0.3368  0.7409
    1R01   A2e9  745   1.674   2.723   3.742 -0.0364 -0.1164 -0.0895
    1R01   A2ea  746   1.726   2.675   3.610 -0.2042  0.1090  0.6001
    1R01   A2eb  747   1.649   2.628   3.547  1.5841  0.6812  0.5917
    1R01   A2ec  748   1.766   2.757   3.546  3.7335 -0.9767 -1.3470
    1R01   A2ed  749   1.802   2.598   3.626  0.1491 -1.8970 -1.2969
    1R01   A2ee  750   1.386   2.901   3.821 -0.0091  0.3723 -0.0883
    1R01   A2ef  751   1.295   2.851   3.858 -1.3756 -1.6248 -1.6944
    1R01   A2f0  752   1.375   3.050   3.803  0.6537 -0.1397 -0.3574
    1R01   A2f1  753   1.369   3.098   3.899 -1.7886 -1.5052 -0.4716
    1R01   A2f2  754   1.489   3.079   3.704  0.1796 -0.8362  0.6557
    1R01   A2f3  755   1.594   3.057   3.738 -1.3877 -1.5847 -1.6366
    1R01   A2f4  756   1.493   3.190   3.670  2.1942 -0.0556  0.9958
    1R01   A2f5  757   1.194   2.932   3.558  0.0301  0.0651 -0.2968
    1R01   A2f6  758   1.116   2.878   3.461  0.1799  0.8275  0.0514
    1R01   A2f7  759   1.144   2.869   3.361 -2.1399  0.5645  0.9793
    1R01   A2f8  760  -1.470   1.240  -6.621  0.0387  0.6012  0.0960
    1R01   A2f9  761  -1.391   1.164  -6.641  2.7365 -1.1211 -1.3562
    1R01   A2fa  762  -1.522   1.266  -6.707 -1.8671 -0.2650  1.4908
    1R01   A2fb  763  -1.552   1.199  -6.558 -2.6674 -0.0878  0.1680
    1R01   A2fc  764  -1.425   1.371  -6.549  0.5471 -0.1258 -0.0868
    1R01   A2fd  765  -1.317   1.437  -6.627 -0.0981  0.0858  0.2452
    1R01   A2fe  766  -1.225   1.378  -6.622 -1.5840 -2.0289 -2.1660
    1R01   A2ff  767  -1.343   1.460  -6.727 -0.0725  0.5522  0.0602
    1R01   A300  768  -1.291   1.532  -6.580  1.1671  0.2063  0.0869
    1R01   A301  769  -1.374   1.348  -6.407 -0.3235  0.0877 -0.6129
    1R01   A302  770  -1.441   1.440  -6.323 -0.2360  0.1398  0.4256
    1R01   A303  771  -1.425   1.437  -6.184 -0.0462  0.2988  0.6069
    1R01   A304  772  -1.465   1.501  -6.112  2.2024  2.5484  1.2975
    1R01   A305  773  -1.336   1.334  -6.138 -1.2216  0.3618 -0.2871
    1R01   A306  774  -1.284   1.267  -6.015  0.3611  0.0148 -0.1744
    1R01   A307  775  -1.370   1.227  -5.951 -0.5031 -0.3287  0.1343
    1R01   A308  776  -1.227   1.152  -6.114  0.3262 -0.0789 -0.1145
    1R01   A309  777  -1.279   1.065  -6.116 -0.1820  1.1841 -3.6960
    1R01   A30a  778  -1.080   1.146  -6.080 -0.2890  0.4115 -0.7254
    1R01   A30b  779  -1.001   1.093  -6.142  1.9086 -0.6528 -1.9593
    1R01   A30c  780  -1.093   1.092  -5.935  0.2670  0.4349  0.0348
    1R01   A30d  781  -1.151   1.003  -5.934  0.7244  1.1602  1.1627
    1R01   A30e  782  -1.136   1.213  -5.845  0.5729  0.5787 -0.7856
    1R01   A30f  783  -1.218   1.193  -5.770 -1.5628 -1.0475  0.7085
    1R01   A310  784  -1.166   1.331  -5.943 -0.1431 -0.1696  0.2110
    1R01   A311  785  -1.180   1.429  -5.898  0.7083  0.8290 -3.0477
    1R01   A312  786  -1.053   1.302  -6.048  0.0616  0.1649  0.4253
    1R01   A313  787  -0.952   1.319  -6.003 -1.0581 -0.3503  3.0559
    1R01   A314  788  -1.043   1.373  -6.140 -0.1203  1.2181  1.1085
    1R01   A315  789  -1.281   1.235  -6.222 -0.0410  0.0349  0.4887
    1R01   A316  790  -1.297   1.239  -6.363 -0.3676  0.2590 -0.1914
    1R01   A317  791  -1.258   1.161  -6.425 -2.1170 -1.4909  1.8096
    1R01   A318  792  -1.540   1.510  -6.395  0.0558 -0.3506  0.2468
    1R01   A319  793  -1.539   1.474  -6.529  0.1822  0.1410  1.1222
    1R01   A31a  794  -1.638   1.504  -6.617 -0.3969 -0.3484  0.4725
    1R01   A31b  795  -1.640   1.437  -6.708 -3.2213 -3.7270  0.2994
    1R01   A31c  796  -1.742   1.574  -6.570 -0.0432 -0.1064 -0.2480
    1R01   A31d  797  -1.873   1.628  -6.611  0.0481 -0.1122 -0.0209
    1R01   A31e  798  -1.862   1.723  -6.671 -0.3120  2.5679 -0.1196
    1R01   A31f  799  -1.897   1.646  -6.461  0.4824  0.3710  0.6458
    1R01   A320  800  -1.898   1.753  -6.431  1.4668  1.2810 -0.4206
    1R01   A321  801  -2.024   1.576  -6.431  0.2502 -0.0332  0.4925
    1R01   A322  802  -2.078   1.607  -6.336 -0.8667  2.2617  2.1518
    1R01   A323  803  -1.987   1.425  -6.451  0.1409 -0.4905  0.7206
    1R01   A324  804  -1.891   1.395  -6.402 -0.4085  1.0312  0.7774
    1R01   A325  805  -2.086   1.308  -6.473  0.4717 -0.6562 -0.1508
    1R01   A326  806  -2.067   1.299  -6.609 -0.0602  0.1557  0.0642
    1R01   A327  807  -2.155   1.238  -6.700  0.0304  0.2001  0.3206
    1R01   A328  808  -2.141   1.252  -6.846 -0.1622  0.1272 -0.0170
    1R01   A329  809  -2.198   1.178  -6.905  1.6551  0.8763  0.2647
    1R01   A32a  810  -2.033   1.246  -6.875 -0.6280  0.3150 -2.6218
    1R01   A32b  811  -2.183   1.350  -6.885 -3.0270 -0.3912 -2.5875
    1R01   A32c  812  -2.252   1.157  -6.631  0.3934  0.1462  0.4164
    1R01   A32d  813  -2.277   1.180  -6.497 -0.3947 -0.1489  0.2513
    1R01   A32e  814  -2.197   1.252  -6.407  0.1050 -0.8220  0.5888
    1R01   A32f  815  -2.259   1.310  -6.282 -0.6207  0.1902  0.2965
    1R01   A330  816  -2.225   1.403  -6.258  0.1616 -2.9560 -1.9662
    1R01   A331  817  -2.230   1.256  -6.191 -1.4661  2.9870  0.0131
    1R01   A332  818  -2.367   1.323  -6.301  0.6210 -0.3842 -1.9862
    1R01   A333  819  -1.963   1.403  -6.610 -0.2867 -0.2572  0.0909
    1R01   A334  820  -1.867   1.361  -6.645  0.3366  0.5926 -1.0068
    1R01   A335  821  -1.993   1.543  -6.670 -0.4408 -0.1151  0.7875
    1R01   A336  822  -2.014   1.552  -6.780 -2.3457  0.0268  2.2370
    1R01   A337  823  -2.105   1.597  -6.569 -0.3126 -0.4360 -0.6040
    1R01   A338  824  -2.134   1.702  -6.585 -2.1279  0.7272 -1.8771
    1R01   A339  825  -2.200   1.545  -6.572 -2.5078  2.9072  0.1422
    1R01   A33a  826  -1.756   1.609  -6.439 -0.0086  0.0086 -0.1382
    1R01   A33b  827  -1.659   1.584  -6.339  0.1225  0.4635 -0.6227
    1R01   A33c  828  -1.675   1.591  -6.233 -1.3900 -1.0191 -1.6613
    1R01   A33d  829   3.763   4.009   2.863  0.1341 -1.3636 -0.1203
    1R01   A33e  830   3.704   4.047   2.949 -0.9671  3.1504 -0.4752
    1R01   A33f  831   3.693   4.002   2.782  0.6983 -2.8785 -2.3412
    1R01   A340  832   3.817   3.915   2.881  1.8695  0.3829  1.5047
    1R01   A341  833   3.863   4.123   2.814 -0.1904 -0.2191  0.3395
    1R01   A342  834   3.991   4.109   2.910  0.0127 -0.1780  0.5276
    1R01   A343  835   4.072   4.170   2.881 -1.4177  1.7572  2.1401
    1R01   A344  836   4.039   4.012   2.899 -0.8314 -1.0088  1.7264
    1R01   A345  837   3.970   4.102   3.017 -0.0772 -1.4848  2.4773
    1R01   A346  838   3.797   4.264   2.813 -0.0433  0.2286  0.6023
    1R01   A347  839   3.823   4.318   2.686  0.6018 -1.1360 -0.4660
    1R01   A348  840   3.751   4.428   2.636  0.3483 -0.1239 -0.1847
    1R01   A349  841   3.756   4.453   2.533  1.0365 -1.8333  2.4165
    1R01   A34a  842   3.665   4.488   2.733 -0.0860 -0.2109  0.2430
    1R01   A34b  843   3.537   4.567   2.733  0.8634 -0.4783  0.1253
    1R01   A34c  844   3.463   4.521   2.668  0.9342  0.5311  0.7043
    1R01   A34d  845   3.526   4.527   2.891  0.6045 -0.1819  0.5535
    1R01   A34e  846   3.438   4.468   2.917 -0.4262 -1.6955 -0.6292
    1R01   A34f  847   3.526   4.674   2.963 -0.4789  0.3712 -0.0870
    1R01   A350  848   3.556   4.669   3.062  0.0428  1.4757  1.3960
    1R01   A351  849   3.384   4.735   2.935 -0.8087  0.0520 -0.1813
    1R01   A352  850   3.362   4.826   2.991 -2.0610  1.7397 -0.6162
    1R01   A353  851   3.384   4.753   2.777 -0.3115  0.2766 -0.5186
    1R01   A354  852   3.349   4.853   2.761  1.4511  0.2722  0.3798
    1R01   A355  853   3.530   4.725   2.727 -0.9087  0.3572  0.2867
    1R01   A356  854   3.572   4.772   2.642  0.1744 -1.6341  2.0079
    1R01   A357  855   3.608   4.759   2.859  0.2197  0.1085  0.4202
    1R01   A358  856   3.609   4.863   2.878 -0.2955 -0.1838  0.5684
    1R01   A359  857   3.716   4.730   2.860  0.9609  1.1399 -2.3937
    1R01   A35a  858   3.650   4.443   2.864 -0.1993  0.3486 -0.4390
    1R01   A35b  859   3.712   4.324   2.906 -0.2805 -0.2121 -0.5572
    1R01   A35c  860   3.688   4.276   2.997  0.3630  0.2272  1.5406
    1R01   A35d  861   3.894   4.224   2.606  0.4291 -0.3491 -0.3556
    1R01   A35e  862   3.909   4.100   2.667  0.4844 -0.1493 -0.1159
    1R01   A35f  863   3.961   3.982   2.605 -0.2789 -0.7304  0.5649
    1R01   A360  864   3.955   3.880   2.646  0.4073 -1.3721 -2.8910
    1R01   A361  865   4.014   4.011   2.481 -0.0917 -0.6895 -0.8482
    1R01   A362  866   4.059   3.931   2.366 -0.8719  0.0863 -0.3060
    1R01   A363  867   4.163   3.893   2.387  0.4275  1.7270  2.2802
    1R01   A364  868   4.073   4.068   2.284  0.1894 -0.1966 -0.5454
    1R01   A365  869   4.182   4.089   2.264 -1.4275 -0.8581  0.3570
    1R01   A366  870   4.011   4.035   2.140 -0.0511 -0.0097  0.1057
    1R01   A367  871   4.041   4.094   2.048 -1.1725 -2.5934 -0.9324
    1R01   A368  872   3.864   4.018   2.164  0.6442  0.2284 -0.1374
    1R01   A369  873   3.816   3.993   2.069  1.0867  0.3620  0.3040
    1R01   A36a  874   3.775   4.091   2.254  0.0541 -0.6645  0.0870
    1R01   A36b  875   3.755   3.990   2.349  0.7298 -0.2928 -0.4933
    1R01   A36c  876   3.647   3.986   2.434  0.7285  0.1660  0.2224
    1R01   A36d  877   3.614   3.867   2.521  0.3705 -0.4414 -0.3609
    1R01   A36e  878   3.549   3.902   2.605 -2.3045 -0.0735 -0.5968
    1R01   A36f  879   3.559   3.793   2.460  1.3533  0.7122  1.4467
    1R01   A370  880   3.708   3.831   2.556  0.4741 -0.0623  0.0009
    1R01   A371  881   3.565   4.103   2.424  0.1410 -0.0985  0.6804
    1R01   A372  882   3.594   4.208   2.341  0.1023 -0.8173  0.2750
    1R01   A373  883   3.695   4.206   2.245 -0.0312 -0.2087  0.7835
    1R01   A374  884   3.707   4.307   2.127  0.3692 -0.1684 -0.0982
    1R01   A375  885   3.776   4.388   2.145  1.2713  0.6285 -1.9320
    1R01   A376  886   3.748   4.270   2.034 -0.2949  0.6320 -0.9227
    1R01   A377  887   3.603   4.344   2.107 -6.2072 -3.6413  1.7742
    1R01   A378  888   3.842   3.894   2.261 -0.0860 -0.1090 -0.0898
    1R01   A379  889   3.780   3.823   2.204  0.4940  0.4107  0.9112
    1R01   A37a  890   3.984   3.831   2.279  0.3411 -0.8874 -0.4407
    1R01   A37b  891   3.986   3.723   2.287  1.9256 -0.9492  1.9039
    1R01   A37c  892   4.046   3.873   2.137 -0.7267 -0.6065 -0.1466
    1R01   A37d  893   3.998   3.813   2.054  0.2478 -1.0924 -1.5795
    1R01   A37e  894   4.155   3.853   2.137  3.1541 -1.0774  0.5061
    1R01   A37f  895   4.014   4.129   2.418  0.2655 -0.2937 -0.4656
    1R01   A380  896   3.941   4.242   2.474 -0.0447  0.1098 -0.4348
    1R01   A381  897   3.944   4.337   2.425  1.3610 -3.5719  0.1595
    1R01   A382  898   0.493   3.961   0.984  0.2117 -0.3860 -0.3447
    1R01   A383  899   0.408   3.931   1.055 -3.3009  4.6107  0.5656
    1R01   A384  900   0.508   4.067   1.004  1.3787 -1.3160  0.3152
    1R01   A385  901   0.581   3.907   1.015  1.3543 -0.6140  1.9147
    1R01   A386  902   0.449   3.941   0.839 -0.2419 -0.1996 -0.7297
    1R01   A387  903   0.420   3.793   0.829  0.5131 -0.0477  0.7615
    1R01   A388  904   0.512   3.731   0.847  0.7680  1.1011 -0.1716
    1R01   A389  905   0.351   3.745   0.903  1.7041 -2.8978  0.3190
    1R01   A38a  906   0.375   3.767   0.730 -2.3071 -0.4483 -0.4364
    1R01   A38b  907   0.560   3.980   0.733  0.0041  0.4491  0.3577
    1R01   A38c  908   0.508   4.086   0.655 -0.3968  0.0686  0.3539
    1R01   A38d  909   0.572   4.135   0.541 -0.0070  0.4718  0.9674
    1R01   A38e  910   0.527   4.220   0.486 -1.9721  0.9389  2.0311
    1R01   A38f  911   0.696   4.075   0.527  0.0631 -1.0606 -0.4821
    1R01   A390  912   0.825   4.113   0.464  0.3682 -0.3314 -0.1243
    1R01   A391  913   0.860   4.214   0.492 -1.5367  1.0076 -1.4316
    1R01   A392  914   0.898   4.007   0.554 -0.5777 -0.1912 -0.5394
    1R01   A393  915   0.976   4.043   0.623  1.5088 -1.0461  0.3628
    1R01   A394  916   0.964   3.908   0.450  0.3489  0.2271  0.5616
    1R01   A395  917   0.980   3.804   0.473 -0.2484  0.2638  2.2858
    1R01   A396  918   1.078   3.997   0.388  0.1390 -0.3779  0.0082
    1R01   A397  919   1.150   4.028   0.464  1.5680  0.9117 -0.2497
    1R01   A398  920   1.010   4.124   0.319  0.8308  0.6366  0.0208
    1R01   A399  921   1.037   4.223   0.364 -0.4319  1.2769 -0.7462
    1R01   A39a  922   0.858   4.091   0.314 -0.3778  0.1788 -0.6190
    1R01   A39b  923   0.799   4.145   0.245 -1.9099 -0.4824  0.0872
    1R01   A39c  924   0.863   3.924   0.329  0.3327 -0.3209 -0.8778
    1R01   A39d  925   0.889   3.873   0.238 -0.9989 -1.8728  0.3420
    1R01   A39e  926   0.763   3.882   0.349 -0.0552 -2.0545  0.9605
    1R01   A39f  927   0.756   3.994   0.611  0.5712 -0.6207  0.1958
    1R01   A3a0  928   0.691   3.931   0.711 -0.0173 -0.5499 -0.6272
    1R01   A3a1  929   0.746   3.868   0.775 -2.9674 -0.5226 -0.7200
    1R01   A3a2  930   0.377   4.124   0.700  0.5192 -0.5502  0.3687
    1R01   A3a3  931   0.329   4.032   0.801 -0.2860  0.1234  0.9190
    1R01   A3a4  932   0.198   4.035   0.855 -0.2296 -0.4614 -0.6186
    1R01   A3a5  933   0.161   3.948   0.921  0.2384  0.6942  0.9190
    1R01   A3a6  934   0.127   4.147   0.813  0.1558  0.7379  0.0347
    1R01   A3a7  935  -0.019   4.198   0.806 -0.1867  0.3996 -0.4736
    1R01   A3a8  936  -0.085   4.130   0.751 -0.1801  2.1759  1.2756
    1R01   A3a9  937   0.032   4.305   0.701 -0.0844 -0.4206 -0.9115
    1R01   A3aa  938  -0.018   4.294   0.602 -1.9960 -0.2901  1.7758
    1R01   A3ab  939  -0.008   4.443   0.753  0.7731  0.0896 -0.1689
    1R01   A3ac  940  -0.017   4.531   0.683 -0.5321  0.6899 -1.4430
    1R01   A3ad  941   0.058   4.463   0.892  0.2462  0.2277  0.0618
    1R01   A3ae  942   0.059   4.571   0.922  0.2158  0.0515 -0.8490
    1R01   A3af  943   0.192   4.413   0.954  0.1455 -0.0652 -0.6022
    1R01   A3b0  944   0.124   4.331   1.044  0.1384 -0.2340 -0.4998
    1R01   A3b1  945   0.177   4.301   1.174 -0.0117 -1.0896  0.0129
    1R01   A3b2  946   0.101   4.252   1.306  0.6948  0.8795  0.6847
    1R01   A3b3  947   0.152   4.274   1.396  1.3677 -2.6115  0.1360
    1R01   A3b4  948  -0.002   4.302   1.310  0.9502 -1.1992  0.2098
    1R01   A3b5  949   0.087   4.142   1.290  0.5018 -0.2272 -0.1680
    1R01   A3b6  950   0.314   4.338   1.185 -0.2338 -0.4962 -0.7291
    1R01   A3b7  951   0.381   4.411   1.093 -0.4746 -0.0116 -0.6595
    1R01   A3b8  952   0.328   4.455   0.975  0.2608  0.4185 -0.9428
    1R01   A3b9  953   0.389   4.551   0.886 -0.6505 -0.5562  0.0723
    1R01   A3ba  954   0.321   4.574   0.809  1.1129 -2.4207  1.6944
    1R01   A3bb  955   0.483   4.522   0.837  2.0066 -1.3989 -0.4856
    1R01   A3bc  956   0.413   4.648   0.944 -2.4807  1.2113  0.7230
    1R01   A3bd  957  -0.012   4.369   0.992  0.4965  0.3532 -0.0668
    1R01   A3be  958  -0.067   4.431   1.064  1.4873  0.4512  0.1273
    1R01   A3bf  959  -0.105   4.284   0.910 -0.0429  0.5031  0.5394
    1R01   A3c0  960  -0.169   4.230   0.973 -0.6356 -1.5436 -0.3281
    1R01   A3c1  961  -0.155   4.398   0.816  0.2543  0.0661 -0.1107
    1R01   A3c2  962  -0.203   4.476   0.878 -0.9329 -0.4043 -1.6359
    1R01   A3c3  963  -0.232   4.375   0.736  0.0678  0.3239 -0.2473
    1R01   A3c4  964   0.168   4.234   0.720  0.8734 -0.8804 -0.1005
    1R01   A3c5  965   0.289   4.226   0.651 -0.5228  0.0668 -0.5859
    1R01   A3c6  966   0.316   4.284   0.565 -0.3144  0.8463 -2.5169
    1R01   A3c7  967   1.628   3.510  -4.438  0.3414 -0.7348 -0.2513
    1R01   A3c8  968   1.620   3.620  -4.449 -1.0953 -0.4711 -1.4300
    1R01   A3c9  969   1.558   3.483  -4.360 -3.3187 -0.9958 -1.3552
    1R01   A3ca  970   1.725   3.476  -4.413 -0.0447  0.6721 -1.2570
    1R01   A3cb  971   1.567   3.438  -4.559  0.1002 -0.7361 -0.5185
    1R01   A3cc  972   1.574   3.276  -4.537 -0.2423  0.2553 -0.0747
    1R01   A3cd  973   1.506   3.216  -4.606 -1.7310  1.0863 -1.4328
    1R01   A3ce  974   1.676   3.242  -4.556 -0.4877  1.8956 -3.9145
    1R01   A3cf  975   1.546   3.251  -4.438  1.4332  2.0299 -0.9501
    1R01   A3d0  976   1.638   3.473  -4.695  0.3257 -0.3208  0.7698
    1R01   A3d1  977   1.542   3.530  -4.782 -0.2990 -0.2931 -0.4422
    1R01   A3d2  978   1.567   3.561  -4.920  0.4907  0.0546 -0.2811
    1R01   A3d3  979   1.477   3.583  -4.991  0.8200  3.2048 -2.1848
    1R01   A3d4  980   1.698   3.531  -4.965 -0.0635 -0.0229 -0.0798
    1R01   A3d5  981   1.783   3.528  -5.087 -0.6386  0.1359  0.3209
    1R01   A3d6  982   1.799   3.626  -5.138 -0.8545  2.3372  0.0076
    1R01   A3d7  983   1.892   3.467  -4.993  0.3398 -0.0807 -0.5996
    1R01   A3d8  984   1.975   3.525  -4.973 -1.7057  0.1030  0.4127
    1R01   A3d9  985   1.931   3.332  -5.053 -0.0770  0.1220  0.5074
    1R01   A3da  986   1.985   3.273  -4.987  2.1224 -0.2612 -0.3293
    1R01   A3db  987   2.003   3.371  -5.187  0.3104  0.1933  1.1367
    1R01   A3dc  988   2.045   3.279  -5.228 -0.4131  0.0597 -1.0244
    1R01   A3dd  989   1.889   3.431  -5.278  0.1232 -0.5899 -0.9498
    1R01   A3de  990   1.869   3.377  -5.374  0.4709 -0.4096 -0.2377
    1R01   A3df  991   1.759   3.417  -5.200 -0.2804  0.2528  0.0445
    1R01   A3e0  992   1.655   3.414  -5.243 -0.0431  1.1651 -0.1372
    1R01   A3e1  993   1.797   3.292  -5.113  0.8292  0.3860 -0.1991
    1R01   A3e2  994   1.716   3.272  -5.033 -0.9501  0.4461  0.3484
    1R01   A3e3  995   1.807   3.203  -5.173 -1.4571  2.2685 -1.4183
    1R01   A3e4  996   1.791   3.482  -4.880 -0.8743 -0.8216 -0.1615
    1R01   A3e5  997   1.763   3.444  -4.747 -0.5016 -0.5245 -0.6939
    1R01   A3e6  998   1.839   3.391  -4.688 -0.1948 -0.8341  0.9698
    1R01   A3e7  999   1.416   3.529  -4.713 -0.1155 -0.2105 -0.5803
    1R01   A3e8 1000   1.421   3.480  -4.575 -0.7835 -0.4343  0.4148
    1R01   A3e9 1001   1.309   3.481  -4.491  0.0050  0.1986 -0.9398
    1R01   A3ea 1002   1.313   3.448  -4.391 -0.5241 -1.0375 -0.1042
    1R01   A3eb 1003   1.196   3.531  -4.551  0.0057 -0.5204  0.1618
    1R01   A3ec 1004   1.041   3.544  -4.532 -0.4862 -0.1883 -1.1089
    1R01   A3ed 1005   1.027   3.622  -4.457 -1.5423 -0.3508  0.8458
    1R01   A3ee 1006   1.041   3.586  -4.686  0.3089 -0.9033  0.0680
    1R01   A3ef 1007   1.015   3.688  -4.715 -0.4032  1.6870 -1.6400
    1R01   A3f0 1008   0.952   3.479  -4.750  0.8269  0.9622 -0.3233
    1R01   A3f1 1009   0.966   3.444  -4.850  1.1120  0.1481 -0.5344
    1R01   A3f2 1010   0.814   3.529  -4.696  0.3121  0.4516 -0.2227
    1R01   A3f3 1011   0.732   3.483  -4.750 -0.2963  2.9629  0.2684
    1R01   A3f4 1012   0.776   3.670  -4.637  0.5325  0.0659  0.0794
    1R01   A3f5 1013   0.759   3.617  -4.512  0.0494 -0.9179 -0.1362
    1R01   A3f6 1014   0.684   3.678  -4.411  0.1232  0.3709  0.1315
    1R01   A3f7 1015   0.644   3.610  -4.275 -0.0746  0.1320 -0.3542
    1R01   A3f8 1016   0.735   3.584  -4.218  1.1490 -0.0690  2.1541
    1R01   A3f9 1017   0.588   3.515  -4.286 -2.9188  1.0580  1.7141
    1R01   A3fa 1018   0.584   3.673  -4.204  0.6013  0.4122 -1.0067
    1R01   A3fb 1019   0.653   3.813  -4.447 -0.4779 -0.0564 -0.4799
    1R01   A3fc 1020   0.696   3.868  -4.564  0.4805 -0.3172 -0.5580
    1R01   A3fd 1021   0.766   3.805  -4.664  0.3289 -0.0173 -0.2387
    1R01   A3fe 1022   0.808   3.872  -4.795 -0.2188  0.5769 -0.0670
    1R01   A3ff 1023   0.918   3.881  -4.811  1.8842  1.4096  1.2001
    1R01   A400 1024   0.768   3.815  -4.878 -2.0229 -2.4256  1.7679
    1R01   A401 1025   0.770   3.977  -4.798 -0.5325  0.0690 -0.2070
    1R01   A402 1026   0.807   3.480  -4.548 -0.8085 -0.3843  0.0393
    1R01   A403 1027   0.734   3.399  -4.533 -0.6150  0.2979 -1.9308
    1R01   A404 1028   0.952   3.424  -4.512 -0.0770 -0.2868  0.3118
    1R01   A405 1029   0.966   3.361  -4.423 -1.2182  0.3798 -2.7936
    1R01   A406 1030   0.988   3.354  -4.652  0.0038  0.4769 -0.5540
    1R01   A407 1031   0.922   3.272  -4.663 -1.4271  2.7854 -0.3081
    1R01   A408 1032   1.088   3.326  -4.676 -0.8587  0.9026 -1.6374
    1R01   A409 1033   1.190   3.571  -4.683 -0.3998 -0.3607  0.2662
    1R01   A40a 1034   1.297   3.557  -4.775 -0.0220 -0.1842 -0.3971
    1R01   A40b 1035   1.282   3.579  -4.875 -1.4251  0.0333  4.6823
    1R01   A40c 1036   2.517   5.399   2.202  0.0878 -0.9568  0.1385
    1R01   A40d 1037   2.593   5.475   2.171  0.1890 -1.3524  0.7385
    1R01   A40e 1038   2.486   5.333   2.113 -2.5461 -1.1231 -1.0881
    1R01   A40f 1039   2.425   5.440   2.248 -0.3026  0.0274 -1.1056
    1R01   A410 1040   2.577   5.316   2.306  0.7880 -0.3212  0.7379
    1R01   A411 1041   2.486   5.199   2.353 -0.5892  0.5708 -0.7767
    1R01   A412 1042   2.388   5.236   2.375 -2.8627 -0.0448  0.0948
    1R01   A413 1043   2.484   5.123   2.278 -0.7955 -1.1451  1.4673
    1R01   A414 1044   2.525   5.152   2.442 -1.1262  0.3884 -0.2854
    1R01   A415 1045   2.612   5.405   2.425  0.0919 -0.1635  0.3550
    1R01   A416 1046   2.749   5.434   2.423  0.1074  0.6691  0.4463
    1R01   A417 1047   2.809   5.506   2.531  0.3721  0.7613  0.6564
    1R01   A418 1048   2.918   5.515   2.550 -0.3333 -1.0017  1.0289
    1R01   A419 1049   2.722   5.569   2.621 -0.1453  0.2714  0.0041
    1R01   A41a 1050   2.721   5.574   2.773 -0.6320 -0.5078 -0.2913
    1R01   A41b 1051   2.745   5.677   2.809 -1.4910 -0.0604 -0.7832
    1R01   A41c 1052   2.566   5.549   2.766  0.1593 -0.0340  0.1821
    1R01   A41d 1053   2.503   5.636   2.795 -0.0066  0.3550 -0.8763
    1R01   A41e 1054   2.545   5.411   2.840 -0.5392 -0.0107 -0.6026
    1R01   A41f 1055   2.451   5.359   2.814 -0.3792  0.6744 -0.8178
    1R01   A420 1056   2.556   5.457   2.992  0.1545  0.2409  0.2192
    1R01   A421 1057   2.491   5.538   3.014 -1.7994  0.4531  1.2735
    1R01   A422 1058   2.709   5.491   3.005 -0.3316  0.7044 -0.0759
    1R01   A423 1059   2.739   5.584   3.055  0.5018  1.5764 -0.6162
    1R01   A424 1060   2.781   5.461   2.871  1.0648  0.4949 -0.3138
    1R01   A425 1061   2.889   5.448   2.874 -1.7225 -0.1498  1.4769
    1R01   A426 1062   2.684   5.344   2.818  0.1240  0.3075  0.3478
    1R01   A427 1063   2.704   5.255   2.876  1.8639 -0.5476  0.2470
    1R01   A428 1064   2.715   5.327   2.714  0.6451 -0.8884 -0.3105
    1R01   A429 1065   2.591   5.548   2.612  0.4794 -0.6607 -1.0174
    1R01   A42a 1066   2.528   5.463   2.522  0.2278 -0.2040  0.1008
    1R01   A42b 1067   2.421   5.444   2.527  1.7039  0.9327 -0.3738
    1R01   A42c 1068   2.819   5.346   2.323  0.9088 -0.1721  0.3841
    1R01   A42d 1069   2.719   5.269   2.254  0.2865  0.3858  0.4037
    1R01   A42e 1070   2.753   5.165   2.171  0.1006 -0.0967  0.1423
    1R01   A42f 1071   2.677   5.100   2.127 -1.5461  1.4465  1.1797
    1R01   A430 1072   2.892   5.149   2.160 -0.3926  0.4279  0.5764
    1R01   A431 1073   2.970   5.019   2.165 -0.1134  0.4247 -0.3006
    1R01   A432 1074   2.935   4.952   2.242 -1.4720  1.3971  1.5845
    1R01   A433 1075   3.091   5.108   2.218  0.2512  0.0150 -0.3358
    1R01   A434 1076   3.129   5.078   2.314 -0.1791  0.6347 -1.1775
    1R01   A435 1077   3.210   5.073   2.122 -0.3403  0.7656  0.0599
    1R01   A436 1078   3.317   5.094   2.151 -0.8499  0.8035  0.3184
    1R01   A437 1079   3.178   5.116   1.969  0.1738 -0.3797 -0.2958
    1R01   A438 1080   3.256   5.104   1.894  0.8682  3.2888  0.3771
    1R01   A439 1081   3.097   5.238   1.923  0.2022 -0.5022 -0.6407
    1R01   A43a 1082   2.983   5.164   1.884 -0.5858  0.6035  0.2726
    1R01   A43b 1083   2.878   5.206   1.806 -0.5445 -0.1291  0.1336
    1R01   A43c 1084   2.757   5.120   1.760  0.6031 -0.3346 -0.0214
    1R01   A43d 1085   2.791   5.017   1.744 -1.1733 -0.9838  2.3144
    1R01   A43e 1086   2.728   5.157   1.662 -0.0271  1.0457 -1.3617
    1R01   A43f 1087   2.678   5.113   1.837  3.3322 -1.6262  0.1798
    1R01   A440 1088   2.888   5.346   1.773  0.5342 -0.7359 -0.4571
    1R01   A441 1089   3.016   5.405   1.791  0.5303 -0.8723  0.3530
    1R01   A442 1090   3.128   5.353   1.860  0.0722  1.0068  0.1403
    1R01   A443 1091   3.272   5.393   1.832  0.3078 -0.5163  1.2494
    1R01   A444 1092   3.280   5.484   1.767  0.8606  0.5124 -1.7418
    1R01   A445 1093   3.349   5.404   1.914  0.5368 -2.3651 -1.2769
    1R01   A446 1094   3.327   5.318   1.771  0.9590 -1.9745  0.5596
    1R01   A447 1095   3.049   5.033   1.935 -0.2462  0.5811  0.2655
    1R01   A448 1096   3.060   4.963   1.850  0.3408 -0.7977  0.5006
    1R01   A449 1097   3.014   4.932   2.047 -0.2613  0.4612 -0.2735
    1R01   A44a 1098   2.958   4.851   2.015 -0.6033 -0.8589 -0.0514
    1R01   A44b 1099   3.167   4.918   2.097 -0.0571  0.0200 -0.0783
    1R01   A44c 1100   3.173   4.852   2.189  1.3097 -2.7832  2.5657
    1R01   A44d 1101   3.215   4.862   2.016 -1.2836  1.9103 -0.3941
    1R01   A44e 1102   2.994   5.228   2.212 -0.5797  1.0094 -0.0688
    1R01   A44f 1103   2.957   5.329   2.301  0.1122 -0.2652 -0.0806
    1R01   A450 1104   3.025   5.387   2.366 -0.5007  2.6477  0.2883
    1R01   A451 1105   3.381   4.623  -4.429 -0.3159  0.1459 -0.3002
    1R01   A452 1106   3.311   4.584  -4.496  3.0839  0.8617 -0.1286
    1R01   A453 1107   3.352   4.729  -4.411  0.4552  1.7543 -1.3480
    1R01   A454 1108   3.481   4.639  -4.466  0.4370  0.5952  0.6513
    1R01   A455 1109   3.393   4.528  -4.310  0.1168 -0.3451 -0.1238
    1R01   A456 1110   3.505   4.427  -4.336 -0.1963  0.3081 -0.0341
    1R01   A457 1111   3.505   4.353  -4.259 -0.6957  1.9991 -0.4262
    1R01   A458 1112   3.498   4.360  -4.429  0.7854 -0.7355  0.5256
    1R01   A459 1113   3.603   4.475  -4.349  1.7553  1.4672 -0.4761
    1R01   A45a 1114   3.255   4.457  -4.277 -0.1524 -0.6247  0.1501
    1R01   A45b 1115   3.245   4.464  -4.136  0.0620  0.4436 -0.2266
    1R01   A45c 1116   3.132   4.421  -4.060 -0.2702 -0.2698  0.6005
    1R01   A45d 1117   3.121   4.450  -3.952  1.9400 -0.6919  3.0910
    1R01   A45e 1118   3.020   4.384  -4.149  0.3731  0.6625  0.0113
    1R01   A45f 1119   2.874   4.411  -4.148  0.4476 -0.0336  0.2197
    1R01   A460 1120   2.856   4.494  -4.077 -0.4583 -2.6241 -1.0889
    1R01   A461 1121   2.880   4.442  -4.301  0.0778 -0.7201 -0.3696
    1R01   A462 1122   2.874   4.548  -4.336 -0.0617 -1.9189 -3.7539
    1R01   A463 1123   2.776   4.360  -4.368  0.2240 -0.1627 -0.9280
    1R01   A464 1124   2.782   4.343  -4.477  0.5039  0.5474  1.5205
    1R01   A465 1125   2.646   4.429  -4.311  0.5383 -0.7549  0.2391
    1R01   A466 1126   2.648   4.540  -4.328 -0.6030 -0.1264  0.4966
    1R01   A467 1127   2.634   4.382  -4.161  0.7822  0.0829  0.4194
    1R01   A468 1128   2.619   4.456  -4.083  0.6209 -2.3387  2.6121
    1R01   A469 1129   2.763   4.294  -4.137  0.0889 -0.1812  0.1755
    1R01   A46a 1130   2.777   4.233  -4.047 -0.3691 -0.4310  1.3624
    1R01   A46b 1131   2.780   4.233  -4.285  0.9254  0.3248 -0.6220
    1R01   A46c 1132   2.871   4.180  -4.292 -2.6129 -1.9346 -1.3991
    1R01   A46d 1133   2.698   4.162  -4.305 -0.3067 -2.1552  2.6848
    1R01   A46e 1134   3.026   4.403  -4.286  0.5678  0.1496 -0.2784
    1R01   A46f 1135   3.143   4.426  -4.365 -0.2283 -0.2624  0.1878
    1R01   A470 1136   3.146   4.446  -4.474  1.6116 -1.2509  0.0170
    1R01   A471 1137   3.347   4.559  -4.078 -0.3403  0.4923  0.0380
    1R01   A472 1138   3.434   4.604  -4.182  0.7215  0.9475 -0.2924
    1R01   A473 1139   3.538   4.692  -4.161 -0.2046 -0.3957  0.0400
    1R01   A474 1140   3.607   4.736  -4.239  2.2869  2.9823 -0.5495
    1R01   A475 1141   3.538   4.748  -4.032 -0.3301  0.6118  0.2301
    1R01   A476 1142   3.622   4.845  -3.947 -0.3138  0.4479  0.2220
    1R01   A477 1143   3.725   4.810  -3.940  1.1695  1.4676 -1.1190
    1R01   A478 1144   3.526   4.789  -3.827  0.3360  0.7275  0.7522
    1R01   A479 1145   3.577   4.718  -3.767  0.8489  1.1768 -1.4317
    1R01   A47a 1146   3.488   4.916  -3.744  0.7019  0.1939  0.3030
    1R01   A47b 1147   3.455   4.906  -3.639  0.2734 -1.9210  0.3349
    1R01   A47c 1148   3.388   4.988  -3.843 -0.0814 -0.3984  0.3763
    1R01   A47d 1149   3.340   5.073  -3.792  0.2112 -1.7077  0.7019
    1R01   A47e 1150   3.287   4.928  -3.938  0.6955 -0.6822  0.2644
    1R01   A47f 1151   3.349   4.976  -4.048 -0.1443  0.3305  0.2470
    1R01   A480 1152   3.283   4.973  -4.178  0.2847  0.6834 -0.3270
    1R01   A481 1153   3.336   5.038  -4.303  1.3622  0.9023  0.2066
    1R01   A482 1154   3.430   5.085  -4.273 -0.7505  0.4234  0.3950
    1R01   A483 1155   3.272   5.122  -4.335  1.6544 -2.5517  0.6269
    1R01   A484 1156   3.352   4.962  -4.380 -0.9912  2.4560  0.7579
    1R01   A485 1157   3.170   4.901  -4.172  0.0610 -0.0166 -0.5232
    1R01   A486 1158   3.111   4.850  -4.060 -0.9453 -0.5396  0.0675
    1R01   A487 1159   3.156   4.883  -3.929 -0.2089  0.5652 -0.2207
    1R01   A488 1160   3.100   4.838  -3.795 -0.2559 -0.1200  0.1241
    1R01   A489 1161   3.035   4.913  -3.749 -0.9103 -2.0670 -1.5057
    1R01   A48a 1162   3.181   4.814  -3.722  2.1175  0.7563  0.4899
    1R01   A48b 1163   3.045   4.745  -3.798 -0.5105 -3.5503  0.9781
    1R01   A48c 1164   3.469   5.040  -3.969 -0.5229  0.0886 -0.0639
    1R01   A48d 1165   3.461   5.142  -3.986 -0.9248  0.8857 -0.1447
    1R01   A48e 1166   3.621   4.996  -3.936  0.0043 -0.4344  0.1506
    1R01   A48f 1167   3.710   5.053  -3.978 -0.1232 -1.0610  1.1128
    1R01   A490 1168   3.607   5.008  -3.781  0.4019  0.5406 -0.0264
    1R01   A491 1169   3.585   5.114  -3.752  1.0246  1.1146 -2.8477
    1R01   A492 1170   3.686   4.974  -3.722  0.0689  0.2218 -1.0382
    1R01   A493 1171   3.457   4.708  -3.930  0.4997 -0.0936  0.0859
    1R01   A494 1172   3.356   4.614  -3.943  0.5991  0.5008 -0.0503
    1R01   A495 1173   3.293   4.590  -3.857 -0.4031  1.1540  0.7670
    1R01   A496 1174   4.504   1.742   1.590 -0.1906 -0.4798 -0.6740
    1R01   A497 1175   4.398   1.751   1.565 -0.8075  0.1853 -1.4453
    1R01   A498 1176   4.542   1.644   1.551 -0.2211 -2.2508  2.2097
    1R01   A499 1177   4.502   1.762   1.701 -1.2893  1.0427  0.0419
    1R01   A49a 1178   4.578   1.855   1.519  0.7043 -0.2456 -0.6100
    1R01   A49b 1179   4.701   1.892   1.605 -0.1657  0.3760  0.0036
    1R01   A49c 1180   4.669   1.937   1.703 -0.0572 -2.1284 -0.7264
    1R01   A49d 1181   4.754   1.976   1.560  0.2918 -0.7981 -3.3458
    1R01   A49e 1182   4.769   1.809   1.625  1.8633  0.5476 -1.2915
    1R01   A49f 1183   4.488   1.978   1.500  0.1443  0.2446 -0.0101
    1R01   A4a0 1184   4.456   1.981   1.367 -0.1477  0.2404 -0.4035
    1R01   A4a1 1185   4.350   2.059   1.313 -0.2818 -1.1617 -0.1414
    1R01   A4a2 1186   4.320   2.056   1.212  0.1080 -2.9371 -0.1173
    1R01   A4a3 1187   4.290   2.144   1.407  0.8355  0.5137 -0.3091
    1R01   A4a4 1188   4.174   2.236   1.420 -0.0443 -0.1898  0.4124
    1R01   A4a5 1189   4.086   2.178   1.405  0.8135  0.7872 -1.3264
    1R01   A4a6 1190   4.221   2.238   1.577  0.4971  0.3790  0.2396
    1R01   A4a7 1191   4.154   2.178   1.645 -1.3555 -1.3329 -1.5951
    1R01   A4a8 1192   4.240   2.386   1.618  0.3766  0.2708 -0.0222
    1R01   A4a9 1193   4.307   2.401   1.703  0.1449  2.2542  0.0139
    1R01   A4aa 1194   4.088   2.419   1.616  0.0119 -0.2006 -0.0642
    1R01   A4ab 1195   4.030   2.352   1.682 -0.7929 -0.0624 -0.9702
    1R01   A4ac 1196   4.042   2.415   1.466 -0.7943 -0.6983  0.1384
    1R01   A4ad 1197   3.956   2.351   1.453  0.0226 -0.1397 -0.5182
    1R01   A4ae 1198   4.168   2.385   1.375 -0.1101  0.3727 -0.1351
    1R01   A4af 1199   4.170   2.405   1.272  0.5342  0.5976  2.3557
    1R01   A4b0 1200   4.278   2.450   1.478  0.4675 -0.5863  0.0914
    1R01   A4b1 1201   4.284   2.557   1.481  0.3317 -1.3828 -0.5132
    1R01   A4b2 1202   4.379   2.427   1.453  0.3285 -1.7224  2.5509
    1R01   A4b3 1203   4.329   2.144   1.535  0.1430  0.1861 -0.3034
    1R01   A4b4 1204   4.418   2.054   1.593 -0.0894 -0.1405 -0.2424
    1R01   A4b5 1205   4.431   2.035   1.699 -1.0542  2.2632  0.0175
    1R01   A4b6 1206   4.539   1.888   1.292  0.3202  0.3565 -0.7228
    1R01   A4b7 1207   4.617   1.811   1.380 -0.0505  0.1790  0.0471
    1R01   A4b8 1208   4.724   1.731   1.335 -0.8577  0.6290  0.0054
    1R01   A4b9 1209   4.796   1.691   1.408 -2.8423  1.0041  1.2356
    1R01   A4ba 1210   4.725   1.711   1.194  0.0513 -0.4074  0.2622
    1R01   A4bb 1211   4.837   1.683   1.090 -0.1398 -0.4642  0.8345
    1R01   A4bc 1212   4.931   1.740   1.110 -1.1637 -0.1882 -0.6884
    1R01   A4bd 1213   4.746   1.771   0.991  0.6195  0.0715 -0.0258
    1R01   A4be 1214   4.787   1.869   0.963  1.4461 -1.0012  1.6566
    1R01   A4bf 1215   4.741   1.694   0.857  0.2136  0.3062  0.7854
    1R01   A4c0 1216   4.721   1.752   0.769 -0.7172  1.5769  2.2791
    1R01   A4c1 1217   4.677   1.556   0.873 -0.2327  0.0606 -0.1502
    1R01   A4c2 1218   4.685   1.511   0.782  1.9669  1.3963  0.9697
    1R01   A4c3 1219   4.565   1.506   0.960 -0.1145 -0.2302 -0.4356
    1R01   A4c4 1220   4.649   1.436   1.052  0.6388  0.2682  0.4026
    1R01   A4c5 1221   4.604   1.318   1.114  0.1404  0.2507  0.1315
    1R01   A4c6 1222   4.697   1.218   1.179  0.1914 -0.5594 -0.0705
    1R01   A4c7 1223   4.763   1.269   1.253  1.5255  2.1028 -0.3860
    1R01   A4c8 1224   4.761   1.176   1.101 -1.1312 -3.7255  3.7111
    1R01   A4c9 1225   4.654   1.130   1.232  2.0782 -0.4901 -2.1580
    1R01   A4ca 1226   4.464   1.295   1.100 -0.3282  0.2252  0.3244
    1R01   A4cb 1227   4.379   1.367   1.021 -0.3309  0.5983  1.0156
    1R01   A4cc 1228   4.427   1.476   0.941  0.3756 -0.1857  1.2293
    1R01   A4cd 1229   4.363   1.528   0.817  0.3301  0.0004  0.4066
    1R01   A4ce 1230   4.418   1.508   0.728  1.7669 -1.3280  2.1847
    1R01   A4cf 1231   4.259   1.495   0.805 -1.1333  2.4860 -1.9938
    1R01   A4d0 1232   4.372   1.638   0.837  1.2299  0.7591  3.1845
    1R01   A4d1 1233   4.770   1.475   0.976  0.0651 -0.1091 -0.0469
    1R01   A4d2 1234   4.812   1.386   0.936 -2.3669 -0.4559 -1.5724
    1R01   A4d3 1235   4.886   1.565   1.012 -0.6203  0.3254  0.1031
    1R01   A4d4 1236   4.984   1.526   1.040 -2.5445  1.4049 -2.7233
    1R01   A4d5 1237   4.891   1.644   0.869 -0.0519 -0.2128 -0.2000
    1R01   A4d6 1238   4.918   1.586   0.777 -2.3227 -0.8733 -0.5861
    1R01   A4d7 1239   4.961   1.729   0.859 -1.5789 -0.0775  2.4340
    1R01   A4d8 1240   4.652   1.776   1.107  0.5398 -1.1832  0.3433
    1R01   A4d9 1241   4.557   1.878   1.149  0.7942  0.5260  0.2304
    1R01   A4da 1242   4.520   1.950   1.073 -0.7275 -0.6547  0.7834
    1R01   A4db 1243   2.692   2.756   1.886  0.2141  0.0402  0.0459
    1R01   A4dc 1244   2.657   2.846   1.945 -2.5517  1.6271 -0.3228
    1R01   A4dd 1245   2.607   2.729   1.820  1.0822 -0.4239  0.6024
    1R01   A4de 1246   2.769   2.788   1.817  0.0641  1.8612  0.3000
    1R01   A4df 1247   2.724   2.633   1.977 -0.3466  0.1170  0.3438
    1R01   A4e0 1248   2.701   2.512   1.887  0.2501  0.1961 -0.1395
    1R01   A4e1 1249   2.600   2.477   1.879  0.1056  2.0084  0.4376
    1R01   A4e2 1250   2.736   2.527   1.785  1.5011  1.1500  2.3158
    1R01   A4e3 1251   2.766   2.427   1.921 -2.0541  0.1051  1.3023
    1R01   A4e4 1252   2.635   2.625   2.100 -0.0015 -0.2090 -0.5269
    1R01   A4e5 1253   2.731   2.583   2.197 -0.7153  0.7216  0.8445
    1R01   A4e6 1254   2.694   2.570   2.337  0.3003  0.4249  0.3393
    1R01   A4e7 1255   2.773   2.560   2.410 -2.0130  1.9748 -1.6466
    1R01   A4e8 1256   2.556   2.601   2.362  0.3137 -0.0174 -0.0718
    1R01   A4e9 1257   2.459   2.612   2.482 -1.1217 -0.5894  0.1954
    1R01   A4ea 1258   2.497   2.687   2.554 -0.6637  2.5526  1.3082
    1R01   A4eb 1259   2.356   2.658   2.370  0.2614  0.3760 -1.0896
    1R01   A4ec 1260   2.338   2.769   2.389  1.3229 -1.2987 -2.1294
    1R01   A4ed 1261   2.231   2.574   2.392  0.7962 -0.0333  0.5382
    1R01   A4ee 1262   2.157   2.569   2.311 -1.1783 -1.0551  1.2946
    1R01   A4ef 1263   2.174   2.617   2.534 -0.1643 -0.4742 -0.6695
    1R01   A4f0 1264   2.159   2.723   2.533 -0.8256  1.0045  1.2165
    1R01   A4f1 1265   2.284   2.569   2.639 -0.0969 -0.7417  0.3467
    1R01   A4f2 1266   2.332   2.648   2.701  0.8554 -0.8480 -1.0260
    1R01   A4f3 1267   2.389   2.488   2.557  0.3518 -0.4532 -0.2376
    1R01   A4f4 1268   2.450   2.416   2.614 -1.1959  0.0943 -1.0302
    1R01   A4f5 1269   2.305   2.443   2.432  0.1757 -0.0341 -0.8500
    1R01   A4f6 1270   2.245   2.350   2.452 -0.1948 -0.1644 -1.9205
    1R01   A4f7 1271   2.359   2.396   2.348 -0.0632  0.9629  1.2633
    1R01   A4f8 1272   2.460   2.624   2.263 -0.0103 -0.2846 -0.3924
    1R01   A4f9 1273   2.501   2.655   2.134  0.1986  0.4600 -0.2865
    1R01   A4fa 1274   2.430   2.692   2.064  0.3427 -0.4682  2.2693
    1R01   A4fb 1275   2.873   2.590   2.153 -0.9969  0.2789  0.1594
    1R01   A4fc 1276   2.872   2.630   2.020  0.2690 -0.5725 -0.5103
    1R01   A4fd 1277   2.998   2.651   1.951  0.4448  0.3002 -0.0083
    1R01   A4fe 1278   3.008   2.657   1.840  1.1744  3.2979  0.5860
    1R01   A4ff 1279   3.112   2.648   2.033 -0.6400  0.4633  0.1200
    1R01   A500 1280   3.267   2.626   2.027 -0.3736  0.0997  0.2934
    1R01   A501 1281   3.283   2.534   1.968  0.7104  1.3960 -1.4904
    1R01   A502 1282   3.264   2.600   2.179  0.3159  0.0241 -0.0378
    1R01   A503 1283   3.291   2.496   2.199 -0.4997  2.0124  0.3113
    1R01   A504 1284   3.363   2.693   2.251 -0.3539  1.2572  0.5670
    1R01   A505 1285   3.392   2.663   2.351 -1.9758 -1.8692  0.2677
    1R01   A506 1286   3.324   2.844   2.221  0.4455 -0.1583  0.2864
    1R01   A507 1287   3.383   2.903   2.288 -2.5199  0.5024 -0.3947
    1R01   A508 1288   3.194   2.920   2.193 -0.1529  0.7733  0.1434
    1R01   A509 1289   3.217   2.937   2.062  0.1861  0.1748 -1.1571
    1R01   A50a 1290   3.125   2.985   1.969  1.0142 -0.6806  0.4666
    1R01   A50b 1291   3.147   2.996   1.823  0.4135  1.1105  0.1585
    1R01   A50c 1292   3.168   2.894   1.787 -4.1904  0.8400 -0.2800
    1R01   A50d 1293   3.237   3.054   1.801 -3.6575 -1.5576  0.5150
    1R01   A50e 1294   3.066   3.035   1.767  0.9898 -1.1591 -2.1600
    1R01   A50f 1295   3.011   3.024   2.031  0.5326 -0.1497  0.0737
    1R01   A510 1296   2.980   2.990   2.156  0.1862  1.0962 -0.0934
    1R01   A511 1297   3.061   2.923   2.245  0.4933  0.1061  0.1334
    1R01   A512 1298   3.010   2.865   2.379 -1.0742 -0.4085 -0.0275
    1R01   A513 1299   3.085   2.851   2.457 -5.2269 -2.4357 -1.0974
    1R01   A514 1300   2.938   2.937   2.423 -1.3290 -1.9306 -1.5788
    1R01   A515 1301   2.956   2.770   2.363  1.3028 -1.5126 -1.5733
    1R01   A516 1302   3.346   2.863   2.069  0.4105  0.1307  0.6119
    1R01   A517 1303   3.423   2.939   2.040 -1.6393  3.0345  0.2350
    1R01   A518 1304   3.384   2.726   2.003 -0.7066  0.0019 -0.8311
    1R01   A519 1305   3.428   2.712   1.904 -0.8628 -0.5160 -0.0153
    1R01   A51a 1306   3.475   2.683   2.131 -0.0391 -0.0324  0.3187
    1R01   A51b 1307   3.523   2.589   2.112 -0.5256  0.9663  1.5159
    1R01   A51c 1308   3.561   2.751   2.147 -0.9358  1.9964 -2.6220
    1R01   A51d 1309   3.106   2.616   2.164 -0.3870  1.2245  0.3582
    1R01   A51e 1310   2.991   2.574   2.224 -0.8246  1.2027  0.2086
    1R01   A51f 1311   2.993   2.536   2.324 -0.8788  2.1620  0.1335
    1R01   A520 1312   0.439   1.599  -4.592  0.3884 -0.6274 -0.1123
    1R01   A521 1313   0.391   1.511  -4.563  0.4418 -1.5867 -1.2593
    1R01   A522 1314   0.498   1.577  -4.677  1.2666  3.5504 -2.7484
    1R01   A523 1315   0.361   1.671  -4.625 -1.1469 -0.4240  1.5355
    1R01   A524 1316   0.540   1.647  -4.481 -0.3292  0.1719 -0.0805
    1R01   A525 1317   0.445   1.693  -4.363  0.3930 -0.0775 -0.0506
    1R01   A526 1318   0.376   1.768  -4.393 -0.9393 -1.0880 -0.6882
    1R01   A527 1319   0.382   1.603  -4.332 -0.2954  0.8089  0.7734
    1R01   A528 1320   0.500   1.721  -4.270 -0.7579 -2.4198 -0.6342
    1R01   A529 1321   0.623   1.763  -4.529 -0.4166  0.9594  0.4664
    1R01   A52a 1322   0.761   1.722  -4.502 -0.1606  0.1438  0.2076
    1R01   A52b 1323   0.874   1.804  -4.525 -0.1312  0.7958  0.3728
    1R01   A52c 1324   0.977   1.780  -4.495  3.2963 -2.2609  0.5578
    1R01   A52d 1325   0.832   1.929  -4.570 -0.9221  0.1705 -0.2369
    1R01   A52e 1326   0.887   2.062  -4.590 -0.1736 -0.3787 -0.4736
    1R01   A52f 1327   0.967   2.050  -4.665 -0.2524 -1.2993  1.6279
    1R01   A530 1328   0.741   2.104  -4.644 -0.5063 -0.6994 -0.0044
    1R01   A531 1329   0.738   2.107  -4.751  4.5614 -3.2028 -0.7140
    1R01   A532 1330   0.703   2.238  -4.578  0.3905  0.2204 -0.2830
    1R01   A533 1331   0.595   2.268  -4.587  0.0929  0.2321  1.7080
    1R01   A534 1332   0.811   2.330  -4.647  0.6152  0.1932 -0.3204
    1R01   A535 1333   0.822   2.323  -4.754 -0.4512  1.6652  0.2280
    1R01   A536 1334   0.944   2.288  -4.576  0.1175 -0.5828 -0.6585
    1R01   A537 1335   1.030   2.251  -4.642  1.8713 -1.8743  4.6863
    1R01   A538 1336   0.909   2.170  -4.480  0.0256  0.3954  0.1319
    1R01   A539 1337   0.989   2.143  -4.407  0.3453 -2.4987  3.3157
    1R01   A53a 1338   0.763   2.219  -4.434 -0.1051  0.0053 -1.2143
    1R01   A53b 1339   0.764   2.319  -4.386  1.7845 -0.8829 -1.8590
    1R01   A53c 1340   0.702   2.145  -4.390 -1.4872  1.4189  0.1139
    1R01   A53d 1341   0.704   1.962  -4.602 -0.7220  0.5755  0.1736
    1R01   A53e 1342   0.590   1.883  -4.585  0.6420 -0.3099  0.4642
    1R01   A53f 1343   0.488   1.915  -4.607 -0.9563  1.1282  0.8088
    1R01   A540 1344   0.761   1.585  -4.449  0.5528 -0.3220  0.4640
    1R01   A541 1345   0.631   1.531  -4.438 -0.2869  0.4670  0.1094
    1R01   A542 1346   0.603   1.405  -4.372  0.5311 -0.5831 -0.2162
    1R01   A543 1347   0.506   1.365  -4.358  1.2398  0.8177 -0.0414
    1R01   A544 1348   0.720   1.330  -4.352 -0.3201  1.3663  0.6237
    1R01   A545 1349   0.768   1.227  -4.248  0.1896  0.4791  0.5033
    1R01   A546 1350   0.721   1.246  -4.149 -1.6620  0.2536  0.5747
    1R01   A547 1351   0.912   1.285  -4.265  0.1965  0.5678 -0.2827
    1R01   A548 1352   0.953   1.330  -4.178  0.5645  0.2837  0.0217
    1R01   A549 1353   1.011   1.167  -4.300 -0.6210  0.3650 -0.2538
    1R01   A54a 1354   1.121   1.184  -4.280 -0.9371 -0.0715 -0.1147
    1R01   A54b 1355   0.966   1.103  -4.438 -0.3628  0.1670 -0.4645
    1R01   A54c 1356   1.050   1.042  -4.475  2.5499 -0.7549 -1.1302
    1R01   A54d 1357   0.884   1.166  -4.552  0.2714 -0.1287  0.6144
    1R01   A54e 1358   0.772   1.088  -4.538  0.5282 -0.0872 -0.2879
    1R01   A54f 1359   0.650   1.105  -4.605  0.6193  0.3972  0.7965
    1R01   A550 1360   0.520   1.042  -4.568  0.1928 -0.0714  1.2279
    1R01   A551 1361   0.443   1.084  -4.639  0.3268  3.6857  0.8597
    1R01   A552 1362   0.496   1.062  -4.464  0.5261  0.3200 -2.5394
    1R01   A553 1363   0.508   0.939  -4.593  0.9977 -1.8224 -0.4692
    1R01   A554 1364   0.667   1.198  -4.703  0.8741  0.3878  0.9300
    1R01   A555 1365   0.779   1.272  -4.723  0.1898 -0.1518  0.2048
    1R01   A556 1366   0.904   1.257  -4.660  0.9839 -0.5880 -0.4678
    1R01   A557 1367   1.027   1.334  -4.675  0.8245 -0.4102 -0.8958
    1R01   A558 1368   1.055   1.357  -4.571 -1.5354 -0.0056  1.3274
    1R01   A559 1369   1.011   1.423  -4.741  0.3497 -2.1132 -2.0908
    1R01   A55a 1370   1.094   1.276  -4.725  0.9476 -0.3609 -1.9947
    1R01   A55b 1371   0.824   1.029  -4.407  0.2773  0.2567 -0.9777
    1R01   A55c 1372   0.838   0.920  -4.415 -0.1987  2.5291 -1.4311
    1R01   A55d 1373   0.791   1.067  -4.264 -0.2309  0.1471  0.0785
    1R01   A55e 1374   0.719   0.999  -4.211 -0.2677  0.7616  1.5407
    1R01   A55f 1375   0.944   1.059  -4.203  0.0083  0.6781  0.4846
    1R01   A560 1376   0.994   0.959  -4.214  0.7622  1.0231 -3.4488
    1R01   A561 1377   0.941   1.089  -4.101 -0.6844 -0.1623 -0.8363
    1R01   A562 1378   0.846   1.387  -4.355 -0.9605  0.1638  0.4854
    1R01   A563 1379   0.869   1.518  -4.388 -0.4927  0.2001  0.3323
    1R01   A564 1380   0.971   1.563  -4.371 -0.2159 -0.1753 -3.1856
    1R01   A565 1381  -2.851   2.040  -7.060 -1.0298  0.1247  0.1053
    1R01   A566 1382  -2.805   2.141  -7.066  0.1989  0.9602  0.4575
    1R01   A567 1383  -2.948   2.054  -7.011 -0.4812 -1.3631 -2.5185
    1R01   A568 1384  -2.783   1.983  -6.992  1.4214  0.4233  0.3825
    1R01   A569 1385  -2.876   1.985  -7.202 -0.2567  0.4128 -0.0324
    1R01   A56a 1386  -2.992   2.065  -7.283 -0.3821  0.5573  0.9530
    1R01   A56b 1387  -2.951   2.149  -7.343  0.3848  0.0732  1.6810
    1R01   A56c 1388  -3.069   2.098  -7.210 -1.3285 -0.1233  0.9479
    1R01   A56d 1389  -3.040   1.994  -7.353  1.5625  0.5021 -5.1434
    1R01   A56e 1390  -2.918   1.840  -7.195 -0.2662 -0.3080 -0.0192
    1R01   A56f 1391  -2.816   1.766  -7.256  0.4023  0.0674  0.4529
    1R01   A570 1392  -2.830   1.629  -7.291  0.3118  0.0459  0.6186
    1R01   A571 1393  -2.758   1.571  -7.346  0.9885  1.0842 -0.9666
    1R01   A572 1394  -2.943   1.573  -7.236  0.0661  0.1712  0.2713
    1R01   A573 1395  -3.017   1.442  -7.237 -0.4522 -0.0099  0.2088
    1R01   A574 1396  -2.972   1.364  -7.177  1.4040 -1.2555 -0.5034
    1R01   A575 1397  -3.123   1.511  -7.154 -0.1749 -0.3298 -0.0734
    1R01   A576 1398  -3.134   1.481  -7.049  0.5181  1.8522 -0.2822
    1R01   A577 1399  -3.260   1.482  -7.229  0.1586 -0.6981  0.2328
    1R01   A578 1400  -3.343   1.545  -7.201 -1.8905 -0.3488 -1.7199
    1R01   A579 1401  -3.276   1.330  -7.220 -0.2319  0.3403  0.2348
    1R01   A57a 1402  -3.276   1.291  -7.115  1.3976 -1.3974 -1.5442
    1R01   A57b 1403  -3.164   1.270  -7.303  0.0503 -0.0297  0.5684
    1R01   A57c 1404  -3.103   1.200  -7.245 -0.1645 -1.8178  0.1055
    1R01   A57d 1405  -3.088   1.393  -7.363  0.1927 -0.4687 -0.3542
    1R01   A57e 1406  -3.035   1.385  -7.457 -1.2842 -1.3455 -2.5875
    1R01   A57f 1407  -3.206   1.493  -7.376 -0.5789  0.1174 -0.0072
    1R01   A580 1408  -3.185   1.602  -7.397  0.3361 -0.0206 -0.4455
    1R01   A581 1409  -3.282   1.465  -7.446 -0.4790 -1.2976  2.4996
    1R01   A582 1410  -3.040   1.637  -7.163 -0.3637  0.0917 -0.4260
    1R01   A583 1411  -3.031   1.775  -7.132  0.4067  0.1465  0.0080
    1R01   A584 1412  -3.120   1.830  -7.101 -0.5196  0.0121  0.1898
    1R01   A585 1413  -2.712   1.855  -7.306  0.2402  0.5910  0.2195
    1R01   A586 1414  -2.746   1.992  -7.286  0.1427 -0.5610  0.3320
    1R01   A587 1415  -2.653   2.095  -7.312  0.5448  0.4247 -0.8669
    1R01   A588 1416  -2.665   2.196  -7.294 -0.3260  0.8827  0.4363
    1R01   A589 1417  -2.525   2.049  -7.340 -0.5455 -0.1457 -0.2211
    1R01   A58a 1418  -2.383   2.094  -7.296  0.4478 -0.1774 -0.3603
    1R01   A58b 1419  -2.389   2.176  -7.220  0.3866  1.9551 -1.5240
    1R01   A58c 1420  -2.356   1.948  -7.257 -0.0093 -0.4355 -0.2743
    1R01   A58d 1421  -2.371   1.914  -7.154 -0.8241 -0.5885  1.6801
    1R01   A58e 1422  -2.220   1.906  -7.293 -0.3370  0.0704  0.3361
    1R01   A58f 1423  -2.191   1.799  -7.297  0.1841 -0.1369  1.5804
    1R01   A590 1424  -2.138   1.997  -7.205  0.0649  0.7173 -0.2722
    1R01   A591 1425  -2.036   1.964  -7.211  0.4118  1.3960  0.5173
    1R01   A592 1426  -2.165   2.084  -7.079 -0.2733  0.4565 -0.5400
    1R01   A593 1427  -2.159   2.201  -7.143 -0.5918 -0.4979  0.5319
    1R01   A594 1428  -2.189   2.325  -7.088 -0.0936 -0.1060  0.6708
    1R01   A595 1429  -2.167   2.449  -7.175  0.5450 -0.1894  0.1667
    1R01   A596 1430  -2.270   2.475  -7.219  0.0789  0.0392  0.0359
    1R01   A597 1431  -2.091   2.445  -7.259  0.8662  2.9070  1.8421
    1R01   A598 1432  -2.146   2.537  -7.119  4.7557 -2.4849  0.6030
    1R01   A599 1433  -2.213   2.323  -6.950  0.1052  0.7865  0.4337
    1R01   A59a 1434  -2.247   2.206  -6.892 -0.9245 -0.0602  0.1112
    1R01   A59b 1435  -2.225   2.082  -6.951 -0.5642  0.3004  0.0265
    1R01   A59c 1436  -2.276   1.957  -6.888 -0.6863 -0.5111  0.0346
    1R01   A59d 1437  -2.232   1.931  -6.787 -0.9278 -2.3266  0.5567
    1R01   A59e 1438  -2.256   1.868  -6.956  2.4433 -2.5482 -0.5187
    1R01   A59f 1439  -2.378   1.960  -6.867  2.4145  0.5323  0.0227
    1R01   A5a0 1440  -2.148   2.138  -7.275  0.3887  0.4451  0.1960
    1R01   A5a1 1441  -2.048   2.145  -7.328  2.2705 -0.4944  0.9375
    1R01   A5a2 1442  -2.261   2.131  -7.378 -0.1616 -0.2007 -0.2314
    1R01   A5a3 1443  -2.272   2.221  -7.442  0.7099 -0.2865  0.6644
    1R01   A5a4 1444  -2.222   1.979  -7.429 -0.4117  0.5033 -0.4901
    1R01   A5a5 1445  -2.296   1.940  -7.504 -2.8274 -1.5203  1.6277
    1R01   A5a6 1446  -2.123   1.977  -7.475 -1.2389 -0.9216  0.6053
    1R01   A5a7 1447  -2.484   1.919  -7.331 -0.8044 -0.0487  0.2308
    1R01   A5a8 1448  -2.580   1.813  -7.322  0.2872  0.6733  0.5756
    1R01   A5a9 1449  -2.555   1.705  -7.297 -1.2765  1.3381 -0.5920
    1R01   A5aa 1450   1.762   4.215   2.343 -0.3500  0.3020  0.1486
    1R01   A5ab 1451   1.804   4.215   2.442 -1.9924  0.2699 -2.0335
    1R01   A5ac 1452   1.742   4.318   2.318 -1.7714 -0.4073 -1.6168
    1R01   A5ad 1453   1.830   4.179   2.258 -0.4824 -0.0655  1.0487
    1R01   A5ae 1454   1.621   4.146   2.340 -0.5014  0.3037  0.4395
    1R01   A5af 1455   1.518   4.234   2.425  0.0459  0.0829  0.7249
    1R01   A5b0 1456   1.547   4.237   2.531 -1.8915  0.0557 -0.0223
    1R01   A5b1 1457   1.523   4.333   2.375  3.0503  1.5515 -0.0184
    1R01   A5b2 1458   1.416   4.188   2.420  1.9751 -1.0164 -0.9334
    1R01   A5b3 1459   1.640   4.006   2.403  0.6877 -0.0230 -0.2559
    1R01   A5b4 1460   1.574   3.920   2.310 -0.7405 -0.1267 -0.0704
    1R01   A5b5 1461   1.570   3.780   2.334  0.0947 -0.3898  0.3594
    1R01   A5b6 1462   1.518   3.710   2.269  0.8394 -0.5344  1.5204
    1R01   A5b7 1463   1.637   3.735   2.446  0.3032 -0.0715  0.4912
    1R01   A5b8 1464   1.681   3.614   2.513 -0.3167 -0.5908  0.0835
    1R01   A5b9 1465   1.760   3.570   2.452 -3.5623 -0.0265 -2.4767
    1R01   A5ba 1466   1.738   3.707   2.628 -0.3114 -0.0447  0.4270
    1R01   A5bb 1467   1.850   3.705   2.639  2.0379  0.8799 -0.6018
    1R01   A5bc 1468   1.658   3.662   2.759 -0.7272 -0.0755  1.1841
    1R01   A5bd 1469   1.656   3.735   2.841 -0.8072 -0.0006  0.9968
    1R01   A5be 1470   1.720   3.520   2.782  0.2617 -0.2661  0.3997
    1R01   A5bf 1471   1.830   3.534   2.801  2.4941 -1.9783 -0.2909
    1R01   A5c0 1472   1.687   3.427   2.654  0.2620  0.2478 -0.1502
    1R01   A5c1 1473   1.763   3.383   2.587 -0.9733 -0.9436 -1.8196
    1R01   A5c2 1474   1.584   3.510   2.575 -0.4682  0.2296 -0.1240
    1R01   A5c3 1475   1.514   3.448   2.512 -0.8644 -1.4913 -1.0290
    1R01   A5c4 1476   1.520   3.606   2.686 -0.8580 -0.8079  0.1434
    1R01   A5c5 1477   1.458   3.558   2.757  0.5115  1.5255 -0.8541
    1R01   A5c6 1478   1.472   3.689   2.635  1.5691 -0.5606 -1.0051
    1R01   A5c7 1479   1.699   3.819   2.535  0.3998 -0.1678 -0.1827
    1R01   A5c8 1480   1.718   3.956   2.515  0.0032  0.4897  0.3054
    1R01   A5c9 1481   1.761   4.012   2.596 -0.0315  0.7658  2.1920
    1R01   A5ca 1482   1.532   3.981   2.193 -0.4494  0.3153 -0.3529
    1R01   A5cb 1483   1.580   4.110   2.193  0.3537  0.0348 -0.0348
    1R01   A5cc 1484   1.584   4.183   2.071 -0.1393 -0.3233 -0.2588
    1R01   A5cd 1485   1.626   4.282   2.072 -0.4465  1.1102 -0.7141
    1R01   A5ce 1486   1.514   4.133   1.965 -0.6286  0.0399  0.0297
    1R01   A5cf 1487   1.475   4.166   1.823  0.2241  0.3342 -1.1489
    1R01   A5d0 1488   1.410   4.253   1.821  1.1271  0.6376 -2.1536
    1R01   A5d1 1489   1.415   4.017   1.828 -0.2169  0.7361  0.0472
    1R01   A5d2 1490   1.308   4.025   1.835  0.8572  0.6534  0.2376
    1R01   A5d3 1491   1.468   3.953   1.696 -0.3814 -0.3734  0.9744
    1R01   A5d4 1492   1.416   3.869   1.655  0.0718  0.5414 -3.6621
    1R01   A5d5 1493   1.619   3.931   1.722  0.6789  0.3506 -0.1500
    1R01   A5d6 1494   1.653   3.853   1.654  0.4921 -0.7234 -2.1565
    1R01   A5d7 1495   1.704   3.915   1.844  0.4131  0.5685 -0.7804
    1R01   A5d8 1496   1.765   4.038   1.835 -0.0586  0.5578  0.1720
    1R01   A5d9 1497   1.885   4.062   1.900 -0.1822  0.0361  0.1456
    1R01   A5da 1498   1.979   4.184   1.876  1.2357  0.2052 -0.6464
    1R01   A5db 1499   2.080   4.171   1.920 -0.0161 -0.9600  1.9994
    1R01   A5dc 1500   1.936   4.269   1.922 -1.4543 -1.4228 -0.8949
    1R01   A5dd 1501   2.001   4.202   1.768  2.2328  0.1608  1.4697
    1R01   A5de 1502   1.922   3.961   1.993 -0.1512 -0.6844  0.3551
    1R01   A5df 1503   1.859   3.843   2.011  0.5991  0.5660 -0.0518
    1R01   A5e0 1504   1.744   3.811   1.931  0.2640 -0.4303 -0.4889
    1R01   A5e1 1505   1.673   3.674   1.926  0.5891  0.1569 -0.1132
    1R01   A5e2 1506   1.716   3.613   1.847 -0.4273  2.5652 -1.1875
    1R01   A5e3 1507   1.561   3.667   1.906 -0.1129 -3.8474 -2.6604
    1R01   A5e4 1508   1.694   3.621   2.020  0.4839 -1.8266 -0.5429
    1R01   A5e5 1509   1.690   4.069   1.714 -0.5157 -0.6840  0.0918
    1R01   A5e6 1510   1.761   4.084   1.631  3.4754  0.4630 -0.1787
    1R01   A5e7 1511   1.578   4.175   1.696  0.0057 -0.3081 -0.9201
    1R01   A5e8 1512   1.587   4.278   1.647  0.0844  1.2010 -1.1820
    1R01   A5e9 1513   1.485   4.089   1.608 -0.0608 -0.1808 -0.3755
    1R01   A5ea 1514   1.389   4.133   1.588  2.1335  0.3271 -2.1709
    1R01   A5eb 1515   1.526   4.068   1.504  0.3904 -1.8779 -3.1597
    1R01   A5ec 1516   1.459   4.011   1.970 -0.2298 -0.5864  0.1265
    1R01   A5ed 1517   1.476   3.923   2.077  0.2203 -0.4607  0.1657
    1R01   A5ee 1518   1.443   3.823   2.059  1.6957  1.0363 -2.4434
    1R01   A5ef 1519  -5.553  -2.644  -5.735 -0.2762  0.2309  0.0867
    1R01   A5f0 1520  -5.579  -2.542  -5.707  0.2085 -1.2230 -4.3566
    1R01   A5f1 1521  -5.648  -2.686  -5.776 -1.5799  0.4589 -1.2293
    1R01   A5f2 1522  -5.526  -2.700  -5.643 -2.2951  0.2337  0.5580
    1R01   A5f3 1523  -5.450  -2.641  -5.847 -0.3028  0.0801 -0.7684
    1R01   A5f4 1524  -5.442  -2.782  -5.919  0.4276 -0.2202 -0.6604
    1R01   A5f5 1525  -5.529  -2.784  -5.984  1.0421  0.7430  1.2860
    1R01   A5f6 1526  -5.359  -2.772  -5.981 -3.6050  0.9341 -0.1433
    1R01   A5f7 1527  -5.438  -2.868  -5.857  1.4526 -0.3236 -1.2715
    1R01   A5f8 1528  -5.314  -2.611  -5.785 -0.5557  0.3259 -0.3424
    1R01   A5f9 1529  -5.279  -2.480  -5.814 -0.1400 -0.7504 -0.4490
    1R01   A5fa 1530  -5.182  -2.414  -5.745  0.0764 -0.7728 -0.6861
    1R01   A5fb 1531  -5.159  -2.307  -5.768  0.4840  0.3440  0.7596
    1R01   A5fc 1532  -5.103  -2.495  -5.662 -0.6817 -0.2500  0.6223
    1R01   A5fd 1533  -4.969  -2.487  -5.594 -0.3043 -0.5948  0.2554
    1R01   A5fe 1534  -4.973  -2.437  -5.500 -0.0587 -1.4323  1.1165
    1R01   A5ff 1535  -4.961  -2.643  -5.607 -0.2034  0.1412  0.2191
    1R01   A600 1536  -4.952  -2.687  -5.506 -0.1216 -1.3329  0.2070
    1R01   A601 1537  -4.837  -2.672  -5.701  0.1825  0.1332 -0.3862
    1R01   A602 1538  -4.839  -2.772  -5.748  1.3162  0.9106  1.2813
    1R01   A603 1539  -4.721  -2.633  -5.608 -0.2419 -0.1452  0.6913
    1R01   A604 1540  -4.711  -2.691  -5.514  3.3604 -2.7086  0.3267
    1R01   A605 1541  -4.728  -2.482  -5.581  0.9483 -0.3240 -0.2408
    1R01   A606 1542  -4.735  -2.456  -5.476 -1.5580 -0.3196 -0.3452
    1R01   A607 1543  -4.846  -2.433  -5.673 -0.3979  0.2959 -0.2378
    1R01   A608 1544  -4.851  -2.330  -5.695  3.3315  0.6816  0.4031
    1R01   A609 1545  -4.837  -2.541  -5.794 -0.2326  0.0878  0.2107
    1R01   A60a 1546  -4.746  -2.532  -5.854  0.5666 -1.0913  0.7101
    1R01   A60b 1547  -4.925  -2.543  -5.861 -0.0325 -0.3982  0.8178
    1R01   A60c 1548  -5.102  -2.628  -5.662  0.1651 -0.5404 -0.7103
    1R01   A60d 1549  -5.215  -2.690  -5.718  0.4474  0.3618  0.8237
    1R01   A60e 1550  -5.231  -2.793  -5.696 -1.0943  1.4196  1.3686
    1R01   A60f 1551  -5.364  -2.435  -5.919  0.7380 -0.7573  0.1568
    1R01   A610 1552  -5.465  -2.522  -5.948 -0.0803  0.0998 -1.0363
    1R01   A611 1553  -5.524  -2.534  -6.074  0.1010  0.6385 -0.7424
    1R01   A612 1554  -5.586  -2.617  -6.109 -1.2922 -2.1994 -1.1709
    1R01   A613 1555  -5.489  -2.435  -6.159 -0.4613 -0.5709 -0.2230
    1R01   A614 1556  -5.480  -2.435  -6.307  0.2613  0.2197 -0.4134
    1R01   A615 1557  -5.433  -2.525  -6.334  0.7355  1.1242  1.9684
    1R01   A616 1558  -5.372  -2.327  -6.286 -0.7393  0.8092 -1.2023
    1R01   A617 1559  -5.272  -2.370  -6.292 -0.5475 -0.4550 -1.0505
    1R01   A618 1560  -5.399  -2.214  -6.398 -0.0391  0.2799 -0.1946
    1R01   A619 1561  -5.316  -2.136  -6.423  0.3505  0.1960 -0.3745
    1R01   A61a 1562  -5.546  -2.158  -6.359 -0.0748  0.5385 -0.1607
    1R01   A61b 1563  -5.574  -2.089  -6.442 -1.8810  1.0260 -1.1313
    1R01   A61c 1564  -5.603  -2.112  -6.231  0.4094  0.5412  0.3348
    1R01   A61d 1565  -5.683  -2.229  -6.217 -0.2140 -0.4808 -0.5076
    1R01   A61e 1566  -5.816  -2.228  -6.177  0.1908  0.2308 -1.1627
    1R01   A61f 1567  -5.891  -2.368  -6.183 -0.5761  0.1163 -1.3571
    1R01   A620 1568  -5.996  -2.375  -6.148  0.7727  0.4372 -3.0680
    1R01   A621 1569  -5.844  -2.444  -6.130 -1.5290  1.2144  0.4320
    1R01   A622 1570  -5.893  -2.408  -6.282  1.5699 -0.8399  1.0521
    1R01   A623 1571  -5.858  -2.103  -6.128 -0.1736 -0.3019 -0.4268
    1R01   A624 1572  -5.785  -1.986  -6.158 -0.3973 -0.3155  0.2566
    1R01   A625 1573  -5.657  -1.985  -6.210  0.1781  0.5959 -0.0148
    1R01   A626 1574  -5.616  -1.857  -6.284 -0.6634  0.7019 -0.6567
    1R01   A627 1575  -5.515  -1.836  -6.264 -2.4712  0.4155 -2.9194
    1R01   A628 1576  -5.666  -1.771  -6.242  1.2414  2.3150 -2.3146
    1R01   A629 1577  -5.646  -1.868  -6.396 -2.2356 -0.8820 -1.4329
    1R01   A62a 1578  -5.645  -2.271  -6.359 -0.4048  0.3763 -0.4509
    1R01   A62b 1579  -5.725  -2.250  -6.424  4.9950  2.3217  1.1531
    1R01   A62c 1580  -5.577  -2.389  -6.417  1.0004 -0.7309 -0.5643
    1R01   A62d 1581  -5.638  -2.460  -6.469 -1.5465  1.3129 -1.8788
    1R01   A62e 1582  -5.471  -2.310  -6.503 -0.2210  0.2013  0.5747
    1R01   A62f 1583  -5.512  -2.263  -6.589  0.6309  0.1902 -0.0960
    1R01   A630 1584  -5.388  -2.382  -6.531  0.2048  1.3801  2.6086
    1R01   A631 1585  -5.402  -2.334  -6.136 -0.3863  0.4750 -0.2707
    1R01   A632 1586  -5.328  -2.330  -6.014  0.3394 -0.3463 -0.7274
    1R01   A633 1587  -5.239  -2.270  -5.994  0.7570  0.3918  0.7329
    1R01   A634 1588  -2.860   0.353  -5.152  0.5035 -0.1701 -0.6280
    1R01   A635 1589  -2.812   0.454  -5.133 -2.1789 -0.9680  0.0950
    1R01   A636 1590  -2.790   0.284  -5.198 -2.2109 -1.9413  1.5645
    1R01   A637 1591  -2.888   0.317  -5.045 -1.0746 -1.8584  1.4403
    1R01   A638 1592  -2.986   0.369  -5.235 -0.4310 -0.3690 -0.0287
    1R01   A639 1593  -3.093   0.445  -5.154 -0.4822  0.6183  0.0440
    1R01   A63a 1594  -3.189   0.445  -5.213 -1.4898  2.6584  0.6883
    1R01   A63b 1595  -3.069   0.550  -5.138 -0.2274  1.8233 -1.0898
    1R01   A63c 1596  -3.121   0.394  -5.060  1.2566 -0.8249  0.8197
    1R01   A63d 1597  -3.041   0.238  -5.274 -0.6833  0.2135  0.7013
    1R01   A63e 1598  -3.073   0.242  -5.407 -0.1046  0.3627  0.9251
    1R01   A63f 1599  -3.135   0.130  -5.472  0.2419 -0.4167 -0.3003
    1R01   A640 1600  -3.163   0.135  -5.572  0.0867 -0.8730  1.6572
    1R01   A641 1601  -3.168   0.026  -5.388  0.1390 -0.6331  0.4026
    1R01   A642 1602  -3.192  -0.119  -5.406 -1.1488  0.1255  0.8465
    1R01   A643 1603  -3.118  -0.149  -5.473 -0.9395  2.2820  3.0607
    1R01   A644 1604  -3.145  -0.136  -5.256 -0.6385 -0.1446 -0.2086
    1R01   A645 1605  -3.049  -0.185  -5.252  0.6579 -0.0396 -0.4946
    1R01   A646 1606  -3.250  -0.227  -5.187  0.5117  0.1389  0.0361
    1R01   A647 1607  -3.255  -0.219  -5.080  0.4955  1.1144  0.4426
    1R01   A648 1608  -3.213  -0.359  -5.259  0.5985 -0.2235 -0.5469
    1R01   A649 1609  -3.102  -0.382  -5.239  1.9496 -2.1639  0.2077
    1R01   A64a 1610  -3.261  -0.346  -5.407  0.4368  0.4767 -0.2410
    1R01   A64b 1611  -3.204  -0.386  -5.490  2.7530 -1.1385  1.3166
    1R01   A64c 1612  -3.322  -0.202  -5.424  0.0952  0.0717 -0.2620
    1R01   A64d 1613  -3.386  -0.189  -5.513  0.4465  0.2447  1.2107
    1R01   A64e 1614  -3.382  -0.187  -5.271 -0.1718  0.2508  0.0497
    1R01   A64f 1615  -3.419  -0.087  -5.247  0.3273  2.0709  0.4759
    1R01   A650 1616  -3.468  -0.258  -5.264  0.2973  1.0505  0.7857
    1R01   A651 1617  -3.132   0.017  -5.255 -0.3171  0.4827 -0.8102
    1R01   A652 1618  -3.061   0.122  -5.191 -0.6126  0.0851  0.0343
    1R01   A653 1619  -3.019   0.113  -5.091 -0.3297 -0.3444  0.5992
    1R01   A654 1620  -3.024   0.364  -5.465 -0.2867  1.7035  0.4573
    1R01   A655 1621  -2.975   0.447  -5.368  0.3410  0.1131  0.1249
    1R01   A656 1622  -2.943   0.586  -5.397  0.5024 -0.1043  0.1986
    1R01   A657 1623  -2.922   0.655  -5.317 -0.1957 -2.8161  0.3408
    1R01   A658 1624  -2.974   0.626  -5.532 -0.6201 -0.3982 -0.4405
    1R01   A659 1625  -3.008   0.753  -5.613 -0.1205  0.4694 -0.2158
    1R01   A65a 1626  -3.095   0.803  -5.561  0.1040  0.0392 -2.0650
    1R01   A65b 1627  -3.055   0.653  -5.724  0.6354  0.0955  0.6863
    1R01   A65c 1628  -3.168   0.656  -5.732  1.3102 -2.4283 -0.4265
    1R01   A65d 1629  -2.989   0.696  -5.862  0.1362 -0.3273  0.5218
    1R01   A65e 1630  -3.041   0.656  -5.948 -0.5175  0.3409  1.2184
    1R01   A65f 1631  -2.829   0.676  -5.852  0.5641  1.0100  0.6162
    1R01   A660 1632  -2.777   0.690  -5.945  1.8026  1.0247  1.5743
    1R01   A661 1633  -2.756   0.563  -5.771  0.4356  0.0092 -0.5974
    1R01   A662 1634  -2.724   0.654  -5.673  0.2635  0.4922  0.3383
    1R01   A663 1635  -2.663   0.622  -5.550  0.0850 -0.3857  0.3434
    1R01   A664 1636  -2.639   0.713  -5.440  1.0693  0.1128  0.9550
    1R01   A665 1637  -2.729   0.750  -5.400  1.7223  0.1620 -0.4731
    1R01   A666 1638  -2.592   0.661  -5.351  1.2648  0.8833  0.6975
    1R01   A667 1639  -2.579   0.796  -5.476  0.0778  0.9801  1.3445
    1R01   A668 1640  -2.636   0.483  -5.541 -0.6800 -0.3831 -0.0432
    1R01   A669 1641  -2.654   0.394  -5.646  0.1545  0.6573 -0.6614
    1R01   A66a 1642  -2.725   0.432  -5.766 -0.0103 -0.0068 -1.1299
    1R01   A66b 1643  -2.788   0.334  -5.867  0.3790  0.4275 -0.4279
    1R01   A66c 1644  -2.709   0.264  -5.888  2.9156  2.0230 -0.7577
    1R01   A66d 1645  -2.816   0.375  -5.965  0.3213  1.2192 -1.0254
    1R01   A66e 1646  -2.880   0.277  -5.821 -1.2270 -1.3224 -2.5014
    1R01   A66f 1647  -2.789   0.774  -5.740 -0.4239  0.4331  0.4399
    1R01   A670 1648  -2.706   0.839  -5.762  1.0529 -2.0683 -0.8213
    1R01   A671 1649  -2.916   0.854  -5.691  0.1226  0.5205  0.6503
    1R01   A672 1650  -2.910   0.949  -5.640 -1.5569 -2.7884  0.4693
    1R01   A673 1651  -2.991   0.847  -5.834 -0.3409 -0.5004 -0.5551
    1R01   A674 1652  -3.095   0.885  -5.834 -0.5537 -0.6861  3.1028
    1R01   A675 1653  -2.935   0.897  -5.914  0.3430  0.4357 -0.2403
    1R01   A676 1654  -3.019   0.545  -5.621 -0.6802 -0.3972  0.7320
    1R01   A677 1655  -3.058   0.413  -5.598  0.0849 -0.0089  0.1552
    1R01   A678 1656  -3.116   0.357  -5.665 -0.3788  0.4146 -2.7555
    1R01   A679 1657  -2.406  -2.396  -4.340 -0.4496 -0.8869  0.3711
    1R01   A67a 1658  -2.317  -2.403  -4.273  0.6084  0.7032 -3.3439
    1R01   A67b 1659  -2.377  -2.417  -4.444 -3.3463  1.1434 -0.2449
    1R01   A67c 1660  -2.483  -2.471  -4.322  0.4741  0.3611  0.8444
    1R01   A67d 1661  -2.470  -2.255  -4.337  0.2051  0.6057  0.2402
    1R01   A67e 1662  -2.375  -2.144  -4.384  0.1125  0.0935 -1.0956
    1R01   A67f 1663  -2.438  -2.057  -4.388  1.8315 -0.5249 -0.9496
    1R01   A680 1664  -2.330  -2.140  -4.479  0.1766  2.5451 -0.5734
    1R01   A681 1665  -2.294  -2.132  -4.310 -0.7021  0.6604 -2.7443
    1R01   A682 1666  -2.528  -2.233  -4.199  0.6239 -0.0271  0.2474
    1R01   A683 1667  -2.666  -2.229  -4.208 -0.0438 -0.2875  0.3870
    1R01   A684 1668  -2.749  -2.227  -4.092  0.5085  0.3987 -0.1342
    1R01   A685 1669  -2.855  -2.227  -4.087 -1.5874  3.0897  1.5152
    1R01   A686 1670  -2.681  -2.236  -3.971 -0.3371  0.1936 -0.0610
    1R01   A687 1671  -2.704  -2.251  -3.821 -0.0314  0.0103  0.1008
    1R01   A688 1672  -2.746  -2.350  -3.799 -0.6117  2.1465 -0.1655
    1R01   A689 1673  -2.539  -2.240  -3.810 -0.6949 -0.7889 -0.0581
    1R01   A68a 1674  -2.499  -2.340  -3.780 -1.0603 -0.5646 -3.9027
    1R01   A68b 1675  -2.513  -2.120  -3.710  0.1371  0.2445 -0.2769
    1R01   A68c 1676  -2.420  -2.066  -3.706 -0.4758 -0.6454 -0.9656
    1R01   A68d 1677  -2.569  -2.181  -3.578  0.9451 -0.4394  0.1476
    1R01   A68e 1678  -2.528  -2.280  -3.546 -0.4412 -2.3566 -0.2302
    1R01   A68f 1679  -2.724  -2.186  -3.592 -0.9110  0.0886  0.7123
    1R01   A690 1680  -2.765  -2.286  -3.572 -0.8104 -2.0164  0.6686
    1R01   A691 1681  -2.762  -2.139  -3.734 -0.2923 -0.0968 -0.1376
    1R01   A692 1682  -2.857  -2.091  -3.761 -0.8759 -0.8486  1.5130
    1R01   A693 1683  -2.643  -2.035  -3.747  0.4828  0.0579 -0.0054
    1R01   A694 1684  -2.649  -1.992  -3.850 -1.0548 -2.0543 -1.7677
    1R01   A695 1685  -2.654  -1.952  -3.684  2.4664 -1.2807 -2.3469
    1R01   A696 1686  -2.546  -2.227  -3.961  0.4374  0.3359 -1.1872
    1R01   A697 1687  -2.460  -2.224  -4.072  1.1351  1.0267 -0.1765
    1R01   A698 1688  -2.351  -2.224  -4.064  1.4244  2.4544  2.0904
    1R01   A699 1689  -2.702  -2.226  -4.351  0.1732  1.3253 -0.0974
    1R01   A69a 1690  -2.593  -2.254  -4.432  0.4632  0.2271 -0.4213
    1R01   A69b 1691  -2.599  -2.258  -4.570 -0.0558 -0.1839 -0.3289
    1R01   A69c 1692  -2.506  -2.264  -4.635  2.6223  0.1637 -1.7897
    1R01   A69d 1693  -2.724  -2.224  -4.623 -0.1595 -1.0260 -0.3305
    1R01   A69e 1694  -2.789  -2.165  -4.749 -0.4241 -0.4842  0.0557
    1R01   A69f 1695  -2.799  -2.243  -4.821  1.4703 -3.0869 -0.9273
    1R01   A6a0 1696  -2.914  -2.120  -4.652 -1.0558 -0.8792 -0.7755
    1R01   A6a1 1697  -3.007  -2.174  -4.668 -0.1115 -0.4000  0.7443
    1R01   A6a2 1698  -2.922  -1.965  -4.668 -0.2889 -0.4894 -0.6475
    1R01   A6a3 1699  -2.957  -1.905  -4.583  1.3719  2.0949  2.2074
    1R01   A6a4 1700  -2.988  -1.939  -4.814 -0.6217 -0.3814 -0.6828
    1R01   A6a5 1701  -3.013  -1.829  -4.820  0.6033 -0.3316 -1.7921
    1R01   A6a6 1702  -3.081  -2.033  -4.878 -0.7927 -0.0604  0.6628
    1R01   A6a7 1703  -2.988  -2.094  -4.947 -0.8480 -0.7048  0.0354
    1R01   A6a8 1704  -3.010  -2.209  -5.023 -0.1132 -0.3114  0.3458
    1R01   A6a9 1705  -2.904  -2.279  -5.104  0.0010 -0.1825 -0.2342
    1R01   A6aa 1706  -2.833  -2.213  -5.148 -1.2189  0.5129  2.2344
    1R01   A6ab 1707  -2.943  -2.332  -5.188  1.0996  2.3779 -0.2671
    1R01   A6ac 1708  -2.847  -2.347  -5.042 -0.8030 -1.5222 -2.0935
    1R01   A6ad 1709  -3.147  -2.240  -5.034 -0.5369 -0.4712 -0.0118
    1R01   A6ae 1710  -3.246  -2.167  -4.978  0.4036 -0.5997 -0.0388
    1R01   A6af 1711  -3.220  -2.057  -4.899 -1.0005 -0.1562 -0.0569
    1R01   A6b0 1712  -3.319  -1.946  -4.875  0.1003  0.2974  0.4773
    1R01   A6b1 1713  -3.264  -1.869  -4.826 -1.4394  0.7458 -0.8045
    1R01   A6b2 1714  -3.368  -1.902  -4.962  0.6391  4.3502  0.8149
    1R01   A6b3 1715  -3.403  -1.985  -4.811 -1.3468 -1.2602 -2.0327
    1R01   A6b4 1716  -2.874  -1.996  -4.908 -0.3866  0.2708 -0.0513
    1R01   A6b5 1717  -2.856  -1.939  -4.995 -4.3536 -2.5948  0.2749
    1R01   A6b6 1718  -2.748  -2.030  -4.818 -0.1920 -0.0206  0.5591
    1R01   A6b7 1719  -2.651  -2.029  -4.867  1.0119 -0.9519 -0.4401
    1R01   A6b8 1720  -2.772  -1.933  -4.702 -0.7255 -0.3131 -0.0321
    1R01   A6b9 1721  -2.773  -1.832  -4.741  0.0042  1.0762  1.5801
    1R01   A6ba 1722  -2.704  -1.929  -4.619 -0.6221  1.2369  2.5983
    1R01   A6bb 1723  -2.829  -2.183  -4.544  0.6983 -0.1483 -0.1985
    1R01   A6bc 1724  -2.827  -2.185  -4.401 -0.1059  0.3683 -0.1062
    1R01   A6bd 1725  -2.899  -2.133  -4.337 -0.1780  1.5773  1.0214
    1R01   A6be 1726   3.357   3.300   3.453 -0.3743  0.0653 -0.2382
    1R01   A6bf 1727   3.404   3.279   3.544 -1.3314  2.0683  1.0442
    1R01   A6c0 1728   3.357   3.408   3.445  0.6823 -0.6031 -0.0997
    1R01   A6c1 1729   3.253   3.268   3.467 -1.2991  1.7075  1.4270
    1R01   A6c2 1730   3.415   3.228   3.327  0.5771 -0.1972 -0.5713
    1R01   A6c3 1731   3.328   3.266   3.205  0.3989 -0.3668 -0.7856
    1R01   A6c4 1732   3.313   3.375   3.207  3.1043  0.4558 -1.8296
    1R01   A6c5 1733   3.230   3.214   3.213  1.2128  2.0439  0.4463
    1R01   A6c6 1734   3.371   3.236   3.115 -1.5802 -0.5954 -1.8850
    1R01   A6c7 1735   3.415   3.079   3.340  1.0124 -0.1596 -0.2929
    1R01   A6c8 1736   3.534   3.028   3.278  0.1523  0.1723 -1.5054
    1R01   A6c9 1737   3.540   2.890   3.262  0.1300  0.1564 -0.6341
    1R01   A6ca 1738   3.622   2.830   3.229 -0.8513  0.4880 -1.6309
    1R01   A6cb 1739   3.433   2.812   3.310  0.6061  0.0442 -0.3942
    1R01   A6cc 1740   3.380   2.673   3.311  0.7266 -0.0085  0.2491
    1R01   A6cd 1741   3.443   2.605   3.364  2.1227  0.4620 -2.8620
    1R01   A6ce 1742   3.253   2.728   3.387  0.5769  0.3074 -0.2328
    1R01   A6cf 1743   3.242   2.705   3.493 -1.8464 -0.2340  0.4997
    1R01   A6d0 1744   3.127   2.685   3.306 -0.4760  0.3409  0.0225
    1R01   A6d1 1745   3.041   2.750   3.319 -3.0973  2.5020 -0.1486
    1R01   A6d2 1746   3.128   2.526   3.322 -0.2505 -0.1384  0.4906
    1R01   A6d3 1747   3.143   2.501   3.423 -1.3183  1.8001 -0.0361
    1R01   A6d4 1748   3.250   2.473   3.236 -0.3439  0.1794  0.0276
    1R01   A6d5 1749   3.312   2.407   3.300 -1.7646 -0.7274  0.1315
    1R01   A6d6 1750   3.321   2.606   3.181  0.6020  0.1745 -0.1490
    1R01   A6d7 1751   3.383   2.596   3.090  0.0593  0.5077 -0.4243
    1R01   A6d8 1752   3.188   2.686   3.158 -0.3994  0.3156 -0.6623
    1R01   A6d9 1753   3.126   2.647   3.074  0.5268 -3.0057 -0.0308
    1R01   A6da 1754   3.211   2.791   3.135 -2.3002  0.4190  3.4776
    1R01   A6db 1755   3.322   2.863   3.371 -0.2722  0.0615 -0.1348
    1R01   A6dc 1756   3.309   3.000   3.390  0.4533 -0.1105  0.4355
    1R01   A6dd 1757   3.211   3.041   3.426  0.6235 -0.2204  1.6038
    1R01   A6de 1758   3.631   3.147   3.270  0.4826  0.1085 -0.6454
    1R01   A6df 1759   3.562   3.271   3.306  0.3464  0.3849 -0.4624
    1R01   A6e0 1760   3.626   3.400   3.300 -0.1135 -1.0044  0.4912
    1R01   A6e1 1761   3.578   3.494   3.319 -1.2630 -1.0214 -0.3096
    1R01   A6e2 1762   3.760   3.391   3.265 -0.3258 -0.0571  0.3118
    1R01   A6e3 1763   3.877   3.472   3.220  0.8441 -0.2007  0.2928
    1R01   A6e4 1764   3.843   3.536   3.136 -1.6373 -0.2803  2.0390
    1R01   A6e5 1765   3.948   3.340   3.179 -0.1146 -0.3512  0.4187
    1R01   A6e6 1766   3.947   3.328   3.075  1.2533 -0.5313  2.0274
    1R01   A6e7 1767   4.092   3.350   3.224 -0.1766 -0.1934  0.3021
    1R01   A6e8 1768   4.168   3.286   3.173 -0.6460 -0.9456  1.4359
    1R01   A6e9 1769   4.087   3.339   3.375 -0.0409  0.6562  0.6626
    1R01   A6ea 1770   4.189   3.351   3.410 -0.9770 -0.2877 -0.1476
    1R01   A6eb 1771   4.007   3.250   3.458  0.7793 -0.5226  0.6012
    1R01   A6ec 1772   3.927   3.354   3.510  0.0420  0.6778  0.1205
    1R01   A6ed 1773   3.812   3.340   3.585  0.0065  0.3439  0.2336
    1R01   A6ee 1774   3.719   3.444   3.648 -0.0173 -0.8232  0.4502
    1R01   A6ef 1775   3.781   3.512   3.705 -0.0911 -1.3088  1.8382
    1R01   A6f0 1776   3.651   3.398   3.718 -1.4409 -1.0857  0.9377
    1R01   A6f1 1777   3.661   3.506   3.579 -0.5979  0.2482 -2.2005
    1R01   A6f2 1778   3.790   3.207   3.609  0.3328  0.2366 -0.3656
    1R01   A6f3 1779   3.866   3.099   3.560 -0.0595  0.8198 -0.2466
    1R01   A6f4 1780   3.971   3.118   3.474 -0.1820 -0.0436  0.1494
    1R01   A6f5 1781   4.038   3.006   3.406 -0.2314  0.6809  0.1664
    1R01   A6f6 1782   4.100   2.947   3.473  1.2449  0.9473  0.1604
    1R01   A6f7 1783   3.965   2.934   3.368  1.2296  0.9125  1.0583
    1R01   A6f8 1784   4.101   3.044   3.325  0.2996  1.0337  1.7188
    1R01   A6f9 1785   4.001   3.461   3.436  0.7717  0.1691  0.4817
    1R01   A6fa 1786   4.048   3.523   3.514  1.3969 -1.0474  0.0032
    1R01   A6fb 1787   3.975   3.550   3.305 -0.1857  0.1934 -0.3400
    1R01   A6fc 1788   3.953   3.654   3.313  0.4416  0.2727 -1.1196
    1R01   A6fd 1789   4.109   3.513   3.224 -0.0790 -0.1875  0.2281
    1R01   A6fe 1790   4.111   3.548   3.117  3.0370 -2.2763 -2.0346
    1R01   A6ff 1791   4.202   3.561   3.267 -0.7221 -1.8405 -2.2523
    1R01   A700 1792   3.817   3.276   3.227 -0.1153 -0.3906  0.1910
    1R01   A701 1793   3.761   3.149   3.221 -1.4976  0.7710 -0.1908
    1R01   A702 1794   3.816   3.058   3.198 -0.8807  0.7351 -0.4891
    1R01   A703 1795  -2.791  -0.375  -5.199 -0.6086  0.1991 -1.0109
    1R01   A704 1796  -2.688  -0.330  -5.193 -0.0268  2.4626  1.2400
    1R01   A705 1797  -2.791  -0.427  -5.102 -0.2932  0.9006  2.2008
    1R01   A706 1798  -2.859  -0.296  -5.209 -3.0411 -2.3381  1.4733
    1R01   A707 1799  -2.785  -0.468  -5.320  0.5222  0.2780 -0.4133
    1R01   A708 1800  -2.671  -0.564  -5.302 -0.1029 -0.5871  0.8479
    1R01   A709 1801  -2.696  -0.663  -5.343 -0.9300 -1.7714  0.9187
    1R01   A70a 1802  -2.650  -0.579  -5.194  0.5223  1.9166 -2.1342
    1R01   A70b 1803  -2.579  -0.521  -5.348  1.2131  0.2211  0.0803
    1R01   A70c 1804  -2.770  -0.393  -5.450 -0.2622 -0.0944  0.0616
    1R01   A70d 1805  -2.872  -0.430  -5.535 -0.8001 -0.4205 -0.8255
    1R01   A70e 1806  -2.888  -0.383  -5.668  0.4349 -0.1092 -0.3996
    1R01   A70f 1807  -2.971  -0.404  -5.729  1.9840 -1.7249 -2.5049
    1R01   A710 1808  -2.803  -0.280  -5.699  0.1999  0.1229 -0.2526
    1R01   A711 1809  -2.779  -0.168  -5.794  0.2830  0.4849  0.3755
    1R01   A712 1810  -2.870  -0.110  -5.792 -0.1177 -1.4142  1.1569
    1R01   A713 1811  -2.662  -0.122  -5.700  0.1000  0.2789  0.4679
    1R01   A714 1812  -2.673  -0.028  -5.645 -1.3007  0.3694  3.7847
    1R01   A715 1813  -2.526  -0.130  -5.795  0.4450  0.2772  0.3160
    1R01   A716 1814  -2.426  -0.129  -5.749  0.4426  1.2339 -0.6485
    1R01   A717 1815  -2.562  -0.006  -5.884 -0.5282  0.1357 -0.4868
    1R01   A718 1816  -2.595   0.081  -5.823  0.9470 -0.1179  1.8337
    1R01   A719 1817  -2.690  -0.033  -5.970  0.2733  0.0073  0.0261
    1R01   A71a 1818  -2.781   0.023  -5.948  1.7010  0.5083  0.0656
    1R01   A71b 1819  -2.718  -0.179  -5.938  0.1931  0.8955 -0.0640
    1R01   A71c 1820  -2.774  -0.236  -6.009  2.4943  1.4525  1.6136
    1R01   A71d 1821  -2.570  -0.232  -5.907  0.3762  0.1103 -0.5502
    1R01   A71e 1822  -2.509  -0.236  -6.001 -0.1801 -0.4233 -0.5236
    1R01   A71f 1823  -2.574  -0.340  -5.867 -0.6649  1.0777 -1.9671
    1R01   A720 1824  -2.699  -0.239  -5.617 -0.0656 -0.0484 -0.1213
    1R01   A721 1825  -2.674  -0.291  -5.491  1.0024  0.0473  0.0236
    1R01   A722 1826  -2.588  -0.255  -5.425  0.3091  2.9688  0.9553
    1R01   A723 1827  -2.951  -0.533  -5.475 -0.2083  0.5064 -0.2733
    1R01   A724 1828  -2.909  -0.560  -5.338 -0.7211  0.1709 -0.2291
    1R01   A725 1829  -2.947  -0.676  -5.263 -0.0696 -1.1550  0.2564
    1R01   A726 1830  -2.907  -0.702  -5.163  0.1828 -0.5092  1.4311
    1R01   A727 1831  -3.056  -0.751  -5.321 -0.0895 -0.7029  0.0739
    1R01   A728 1832  -3.092  -0.897  -5.321  0.2199 -0.0629 -0.4594
    1R01   A729 1833  -3.007  -0.963  -5.321 -2.4584  1.9654 -1.3124
    1R01   A72a 1834  -3.142  -0.873  -5.469 -0.5506  0.2495 -0.0624
    1R01   A72b 1835  -3.069  -0.911  -5.542  1.1155 -2.7771 -0.6209
    1R01   A72c 1836  -3.281  -0.944  -5.476 -0.6111 -0.0490  0.3435
    1R01   A72d 1837  -3.308  -0.975  -5.576  2.4909  1.5994  2.5485
    1R01   A72e 1838  -3.378  -0.862  -5.382  0.0487 -0.0992  0.2358
    1R01   A72f 1839  -3.481  -0.909  -5.390  0.3222 -1.8014 -1.7052
    1R01   A730 1840  -3.388  -0.707  -5.366 -0.1251 -0.3948 -0.2708
    1R01   A731 1841  -3.346  -0.711  -5.235  0.2452 -0.1619 -0.3059
    1R01   A732 1842  -3.285  -0.603  -5.173  0.4091 -0.0623 -0.5185
    1R01   A733 1843  -3.217  -0.615  -5.031 -0.1518 -0.6918 -0.7559
    1R01   A734 1844  -3.171  -0.524  -5.001  0.1166  0.2047 -1.0501
    1R01   A735 1845  -3.302  -0.641  -4.955 -4.6914  0.9295 -0.8406
    1R01   A736 1846  -3.137  -0.694  -5.026 -0.5959  0.5718  1.8631
    1R01   A737 1847  -3.299  -0.483  -5.244 -0.2871 -0.2646  0.0033
    1R01   A738 1848  -3.342  -0.469  -5.376  0.2038 -0.3643  0.5854
    1R01   A739 1849  -3.376  -0.588  -5.445 -0.0239  0.1907 -0.5617
    1R01   A73a 1850  -3.396  -0.594  -5.594 -0.4294 -0.0312 -0.1272
    1R01   A73b 1851  -3.305  -0.631  -5.647  0.2428 -0.9346  1.0185
    1R01   A73c 1852  -3.483  -0.657  -5.622 -2.8940 -0.9558  0.2280
    1R01   A73d 1853  -3.410  -0.495  -5.634  2.8527  1.6112 -1.0565
    1R01   A73e 1854  -3.328  -0.868  -5.227  0.3447 -0.0058 -0.0888
    1R01   A73f 1855  -3.404  -0.909  -5.156  0.4840 -2.7437  3.4339
    1R01   A740 1856  -3.206  -0.968  -5.241 -0.5955 -0.4271  0.3716
    1R01   A741 1857  -3.177  -1.031  -5.159 -1.7391 -1.9843 -0.8155
    1R01   A742 1858  -3.252  -1.054  -5.371  0.0466 -0.7816 -1.3407
    1R01   A743 1859  -3.337  -1.122  -5.350  1.9322  0.6552 -1.6864
    1R01   A744 1860  -3.169  -1.120  -5.410  0.6698 -0.3637 -1.6002
    1R01   A745 1861  -3.101  -0.729  -5.450  0.0445 -0.3417 -0.2338
    1R01   A746 1862  -3.048  -0.627  -5.537  0.3652 -0.7651 -0.4617
    1R01   A747 1863  -3.085  -0.620  -5.634 -1.5911  1.8536  1.8311
    1R01   A748 1864   1.786   2.088  -1.124 -0.0981  0.2003  0.3494
    1R01   A749 1865   1.859   2.112  -1.040  0.4988 -0.0617  0.3033
    1R01   A74a 1866   1.816   1.998  -1.184  0.0103  2.9550  0.7810
    1R01   A74b 1867   1.788   2.165  -1.199  0.0681 -0.3151 -0.3861
    1R01   A74c 1868   1.643   2.074  -1.071 -0.3194 -0.4740 -0.2746
    1R01   A74d 1869   1.602   2.206  -1.016  0.1401  0.9164  0.5592
    1R01   A74e 1870   1.674   2.230  -0.937  2.3434  2.0085  1.6536
    1R01   A74f 1871   1.606   2.276  -1.097  1.1670  0.4297 -0.7376
    1R01   A750 1872   1.504   2.214  -0.970  0.0212  1.2686 -0.2657
    1R01   A751 1873   1.616   1.965  -0.962 -0.8647 -0.4972 -0.4408
    1R01   A752 1874   1.498   1.896  -1.000 -1.1781  0.3956 -0.6683
    1R01   A753 1875   1.451   1.781  -0.926  0.1985  1.0852  0.7529
    1R01   A754 1876   1.364   1.718  -0.960  0.5246  1.0341 -0.4871
    1R01   A755 1877   1.533   1.746  -0.812 -0.5563 -0.0970 -0.0650
    1R01   A756 1878   1.527   1.666  -0.679  0.1769 -0.2339  1.0040
    1R01   A757 1879   1.547   1.559  -0.701  0.4570  0.1576 -1.9649
    1R01   A758 1880   1.656   1.748  -0.634 -0.4788  0.0912  0.5448
    1R01   A759 1881   1.745   1.685  -0.633 -1.8387  1.9716 -1.2856
    1R01   A75a 1882   1.619   1.806  -0.502  0.2331  1.2434 -0.3693
    1R01   A75b 1883   1.677   1.894  -0.466  1.2780  0.8578 -1.8473
    1R01   A75c 1884   1.614   1.680  -0.420  0.8021  0.1301  0.0211
    1R01   A75d 1885   1.700   1.608  -0.432 -0.0062 -2.4741  0.5037
    1R01   A75e 1886   1.478   1.602  -0.452 -0.3779 -0.1697  0.0459
    1R01   A75f 1887   1.487   1.493  -0.467 -2.8309  2.0786 -1.0258
    1R01   A760 1888   1.417   1.684  -0.571 -0.6317 -0.6493 -0.2559
    1R01   A761 1889   1.310   1.668  -0.588  1.5843 -0.3405  1.1027
    1R01   A762 1890   1.463   1.822  -0.522 -0.3361  0.7237  0.3093
    1R01   A763 1891   1.417   1.857  -0.440 -0.1048  0.6745 -1.5908
    1R01   A764 1892   1.437   1.889  -0.606  0.7624  2.2194 -1.1977
    1R01   A765 1893   1.635   1.826  -0.765  0.1420 -0.6054  0.0328
    1R01   A766 1894   1.686   1.930  -0.842 -0.7722  0.0455 -0.5019
    1R01   A767 1895   1.769   1.993  -0.795  0.6163  1.6927  0.3960
    1R01   A768 1896   1.446   1.947  -1.127 -0.1360 -0.1038  0.1463
    1R01   A769 1897   1.541   2.040  -1.179  0.3704 -0.3770 -0.1354
    1R01   A76a 1898   1.539   2.075  -1.316  0.0265 -1.0133 -0.5834
    1R01   A76b 1899   1.607   2.143  -1.372  0.6137  0.7196 -0.8265
    1R01   A76c 1900   1.434   2.001  -1.386  0.4616 -0.1200 -0.7435
    1R01   A76d 1901   1.355   2.000  -1.518  0.3733  0.0494 -0.0791
    1R01   A76e 1902   1.316   2.097  -1.541 -1.1312  0.5602  0.7347
    1R01   A76f 1903   1.259   1.901  -1.454  0.0151  0.7252  0.2616
    1R01   A770 1904   1.160   1.942  -1.433 -0.1880 -0.2091 -0.9085
    1R01   A771 1905   1.231   1.793  -1.571 -0.3544 -0.6290 -0.2716
    1R01   A772 1906   1.130   1.761  -1.577  1.4025  1.2741 -0.8216
    1R01   A773 1907   1.362   1.708  -1.586  0.0155 -0.1692  0.0004
    1R01   A774 1908   1.343   1.642  -1.670  0.1996  1.5935 -2.3843
    1R01   A775 1909   1.450   1.658  -1.478  0.5786 -0.3656  0.0562
    1R01   A776 1910   1.553   1.752  -1.505 -0.5309  0.0285 -0.4375
    1R01   A777 1911   1.673   1.767  -1.441  0.0550 -0.5482  0.1553
    1R01   A778 1912   1.786   1.855  -1.503 -0.1255 -0.4853  0.1450
    1R01   A779 1913   1.846   1.928  -1.448 -0.0573 -1.0162 -2.6701
    1R01   A77a 1914   1.858   1.789  -1.556  2.7550 -1.4524 -2.0092
    1R01   A77b 1915   1.741   1.916  -1.585 -1.7771  1.5189  2.6464
    1R01   A77c 1916   1.682   1.665  -1.338 -0.7527  0.1690  0.3172
    1R01   A77d 1917   1.579   1.591  -1.293  0.1985  0.7806 -0.0022
    1R01   A77e 1918   1.449   1.583  -1.356  0.4116 -0.6586  0.3328
    1R01   A77f 1919   1.322   1.532  -1.292 -0.2692 -0.1216  0.0164
    1R01   A780 1920   1.351   1.435  -1.256  0.8811 -1.3719  0.9438
    1R01   A781 1921   1.301   1.594  -1.204  3.6390 -2.9811  1.1614
    1R01   A782 1922   1.244   1.534  -1.367 -0.6058 -1.9134 -0.0839
    1R01   A783 1923   1.481   1.800  -1.628  0.2176  0.5011 -0.1524
    1R01   A784 1924   1.524   1.749  -1.714  0.4551  0.1467  1.6168
    1R01   A785 1925   1.411   1.937  -1.653 -0.3182 -0.1644 -0.6764
    1R01   A786 1926   1.465   2.003  -1.720 -0.5656  1.7980  1.7782
    1R01   A787 1927   1.267   1.889  -1.689 -0.7383 -0.0116 -0.4395
    1R01   A788 1928   1.194   1.973  -1.693  2.6765  1.0374 -0.3893
    1R01   A789 1929   1.252   1.842  -1.779 -0.4298  0.5373  0.8177
    1R01   A78a 1930   1.350   1.911  -1.333  0.0324 -0.3581 -0.0324
    1R01   A78b 1931   1.341   1.883  -1.198  0.0913  0.3103  0.4192
    1R01   A78c 1932   1.267   1.810  -1.165 -1.0314 -1.1706  0.2658
    1R01   A78d 1933   4.443   3.088   2.233 -0.1384  0.1975 -0.0868
    1R01   A78e 1934   4.503   3.178   2.228  0.0867 -1.4821 -3.1180
    1R01   A78f 1935   4.361   3.101   2.167  0.8188  0.9459  1.2327
    1R01   A790 1936   4.493   3.006   2.178 -0.8556  0.0850 -0.2190
    1R01   A791 1937   4.408   3.043   2.375  0.8115  0.3558 -0.1287
    1R01   A792 1938   4.539   2.992   2.451  0.6446  0.3007  1.1400
    1R01   A793 1939   4.517   2.963   2.549  1.0579 -1.4003 -1.2087
    1R01   A794 1940   4.582   2.910   2.394 -0.7470  3.4241 -2.3729
    1R01   A795 1941   4.621   3.069   2.458 -0.0303  3.8087  1.7941
    1R01   A796 1942   4.318   2.927   2.348  0.1181 -0.4390  0.2370
    1R01   A797 1943   4.192   2.968   2.411 -0.8662  0.2711 -0.2007
    1R01   A798 1944   4.086   2.877   2.407 -0.3360 -0.5778 -0.8477
    1R01   A799 1945   4.001   2.883   2.483 -2.2165 -0.7575 -0.0377
    1R01   A79a 1946   4.111   2.761   2.332  0.4304 -0.2439 -0.4155
    1R01   A79b 1947   4.052   2.620   2.338 -0.3216 -0.0788 -0.0492
    1R01   A79c 1948   3.980   2.596   2.258 -1.6468 -1.6378  0.1349
    1R01   A79d 1949   4.199   2.578   2.283 -0.2199  0.4651  0.0104
    1R01   A79e 1950   4.209   2.529   2.186  0.2032  0.8995 -0.3305
    1R01   A79f 1951   4.264   2.487   2.391  0.7452 -0.4702 -0.5398
    1R01   A7a0 1952   4.375   2.481   2.389  1.0551  0.0392 -2.4408
    1R01   A7a1 1953   4.182   2.360   2.358  0.5294 -0.0230  0.0799
    1R01   A7a2 1954   4.184   2.322   2.257  0.7922 -0.2728  2.3976
    1R01   A7a3 1955   4.034   2.393   2.404 -0.5734  0.0911  0.6786
    1R01   A7a4 1956   3.957   2.382   2.331 -1.2739  0.8238 -0.4511
    1R01   A7a5 1957   4.042   2.536   2.468 -0.9230  0.0287  0.0870
    1R01   A7a6 1958   3.956   2.555   2.541  1.3237 -1.1123  2.1038
    1R01   A7a7 1959   4.190   2.541   2.518 -0.4684  0.2532  0.8812
    1R01   A7a8 1960   4.196   2.479   2.608  1.0578 -0.7023 -1.0913
    1R01   A7a9 1961   4.222   2.642   2.547 -1.2838 -0.8257  0.7207
    1R01   A7aa 1962   4.229   2.725   2.277  0.1737  0.6336 -0.1280
    1R01   A7ab 1963   4.342   2.806   2.285  0.1111 -0.0878  0.1975
    1R01   A7ac 1964   4.436   2.778   2.234 -1.9552 -0.5835 -2.3232
    1R01   A7ad 1965   4.204   3.096   2.477 -0.3964  0.3541  0.3861
    1R01   A7ae 1966   4.329   3.154   2.451 -0.4195 -0.2448  0.2916
    1R01   A7af 1967   4.379   3.267   2.520 -0.3456 -0.3016  0.2150
    1R01   A7b0 1968   4.479   3.308   2.498  1.7402  3.3599  2.8558
    1R01   A7b1 1969   4.287   3.321   2.609 -0.0464 -0.1863 -0.7362
    1R01   A7b2 1970   4.280   3.435   2.712  0.2503  0.1210 -0.5637
    1R01   A7b3 1971   4.360   3.414   2.787 -1.0545  0.9302  1.0519
    1R01   A7b4 1972   4.135   3.369   2.748  0.0526  0.3206  0.0662
    1R01   A7b5 1973   4.141   3.312   2.845 -2.5590 -0.8695  1.7438
    1R01   A7b6 1974   4.036   3.493   2.757  0.0680  0.4242 -0.7708
    1R01   A7b7 1975   3.949   3.473   2.809 -0.9863 -1.9383 -1.8294
    1R01   A7b8 1976   4.014   3.557   2.613  0.0985  0.3575  0.2042
    1R01   A7b9 1977   3.951   3.641   2.612  2.8258 -0.1863 -0.2242
    1R01   A7ba 1978   4.014   3.485   2.480 -0.4659  0.2947  0.2720
    1R01   A7bb 1979   4.140   3.519   2.444 -0.4534  0.2454  0.3079
    1R01   A7bc 1980   4.187   3.513   2.311 -0.6322 -0.3795  0.0258
    1R01   A7bd 1981   4.301   3.588   2.267  0.1818 -0.3896  0.3910
    1R01   A7be 1982   4.289   3.647   2.169 -0.8134  0.6256 -0.1339
    1R01   A7bf 1983   4.393   3.534   2.263 -3.2720 -0.2024  1.1044
    1R01   A7c0 1984   4.327   3.667   2.340  1.6541 -0.4214  3.7633
    1R01   A7c1 1985   4.102   3.447   2.222 -0.0272  0.0152  0.1914
    1R01   A7c2 1986   3.972   3.408   2.269 -0.0097 -0.1323  0.5264
    1R01   A7c3 1987   3.921   3.428   2.399  0.1405  0.9783  0.4073
    1R01   A7c4 1988   3.781   3.419   2.446  0.8195  0.0288 -0.0066
    1R01   A7c5 1989   3.767   3.434   2.555  1.9807  0.9848  0.6499
    1R01   A7c6 1990   3.744   3.318   2.427  1.3507  1.9972  2.2849
    1R01   A7c7 1991   3.713   3.498   2.398  0.2948 -0.7006 -1.4527
    1R01   A7c8 1992   4.162   3.604   2.569 -0.3875  0.5183  0.2782
    1R01   A7c9 1993   4.176   3.707   2.548 -1.1663 -1.2160  0.0945
    1R01   A7ca 1994   4.261   3.582   2.693  0.3804  0.1146  0.7255
    1R01   A7cb 1995   4.348   3.647   2.698 -1.8301  1.1141  0.5544
    1R01   A7cc 1996   4.144   3.597   2.809  0.4651  0.5135 -0.0707
    1R01   A7cd 1997   4.184   3.572   2.903 -0.2503 -1.2156 -1.2448
    1R01   A7ce 1998   4.107   3.710   2.815 -0.1583  3.4084 -0.0441
    1R01   A7cf 1999   4.163   3.268   2.635  0.6663  0.1226  0.6055
    1R01   A7d0 2000   4.117   3.151   2.573  0.5805  0.4608 -0.0330
    1R01   A7d1 2001   4.023   3.108   2.602  2.1328 -2.8008 -2.7075
    1R01   A7d2 2002  -6.314  -1.813  -5.433  0.0050  0.5308  1.0813
    1R01   A7d3 2003  -6.391  -1.810  -5.357  1.8716  1.2186  1.3121
    1R01   A7d4 2004  -6.237  -1.738  -5.405  0.2415 -0.3531 -0.8156
    1R01   A7d5 2005  -6.270  -1.908  -5.426 -2.5616  1.3455  1.5437
    1R01   A7d6 2006  -6.363  -1.789  -5.573  1.1992 -0.2812  0.9896
    1R01   A7d7 2007  -6.479  -1.887  -5.608 -0.4289  0.0428 -0.2744
    1R01   A7d8 2008  -6.438  -1.988  -5.601  2.6527  1.5685  1.2388
    1R01   A7d9 2009  -6.515  -1.871  -5.710  0.4145 -0.0837 -0.5399
    1R01   A7da 2010  -6.563  -1.885  -5.542  3.0914  2.4787 -1.0978
    1R01   A7db 2011  -6.252  -1.799  -5.680  0.0325  0.4395  0.2978
    1R01   A7dc 2012  -6.233  -1.666  -5.737 -0.0161 -0.1400 -0.1682
    1R01   A7dd 2013  -6.120  -1.641  -5.827 -0.2984  0.1406 -0.3319
    1R01   A7de 2014  -6.117  -1.553  -5.888  0.1109 -0.0934 -1.7044
    1R01   A7df 2015  -6.041  -1.754  -5.861 -0.7113  0.4217  0.2148
    1R01   A7e0 2016  -5.964  -1.807  -5.982  0.2368  0.5758 -0.2762
    1R01   A7e1 2017  -5.852  -1.802  -5.971  0.5985  1.0096 -1.3432
    1R01   A7e2 2018  -6.024  -1.946  -5.945  0.2403  0.1009 -0.3687
    1R01   A7e3 2019  -5.950  -2.014  -5.910  0.0117 -0.9992  0.1064
    1R01   A7e4 2020  -6.109  -1.991  -6.071 -0.2902 -0.0758  0.0025
    1R01   A7e5 2021  -6.192  -2.058  -6.052 -0.4999  2.0698 -1.6521
    1R01   A7e6 2022  -5.994  -2.032  -6.166 -0.0166 -0.2865  0.1809
    1R01   A7e7 2023  -6.035  -2.083  -6.261 -1.0406  0.6224 -0.2317
    1R01   A7e8 2024  -5.911  -1.902  -6.207  0.1612  0.3148  0.6720
    1R01   A7e9 2025  -5.916  -1.883  -6.313 -2.2714 -0.8831  0.8877
    1R01   A7ea 2026  -5.994  -1.784  -6.136 -0.0602 -0.2202 -0.2531
    1R01   A7eb 2027  -5.997  -1.684  -6.189 -0.6394  0.9269 -0.9470
    1R01   A7ec 2028  -6.139  -1.854  -6.133 -0.0433 -0.1386 -0.0376
    1R01   A7ed 2029  -6.198  -1.789  -6.069  2.2199  0.2038  1.4220
    1R01   A7ee 2030  -6.190  -1.861  -6.230  0.4224  1.7559 -0.3871
    1R01   A7ef 2031  -6.086  -1.877  -5.827  0.2742  0.1897  0.4585
    1R01   A7f0 2032  -6.183  -1.909  -5.732 -0.9769 -0.1661 -0.7941
    1R01   A7f1 2033  -6.221  -2.008  -5.715 -0.6168 -0.6924  0.0243
    1R01   A7f2 2034  -6.343  -1.574  -5.692 -0.5756  0.7081  0.0455
    1R01   A7f3 2035  -6.418  -1.650  -5.592 -0.4047  0.2740 -0.0206
    1R01   A7f4 2036  -6.543  -1.601  -5.539 -0.0784 -0.2217 -0.1830
    1R01   A7f5 2037  -6.612  -1.650  -5.476 -0.8809  0.5025 -2.7835
    1R01   A7f6 2038  -6.582  -1.475  -5.582 -0.0466  0.0458  0.9174
    1R01   A7f7 2039  -6.712  -1.411  -5.607  0.6505 -0.8545  0.2762
    1R01   A7f8 2040  -6.793  -1.475  -5.635 -0.6063 -1.3027 -0.5147
    1R01   A7f9 2041  -6.648  -1.337  -5.730 -0.2257 -0.3251  0.7893
    1R01   A7fa 2042  -6.678  -1.380  -5.824  1.5423  3.8096  1.4702
    1R01   A7fb 2043  -6.692  -1.183  -5.736 -0.6639  0.3710 -0.1048
    1R01   A7fc 2044  -6.711  -1.122  -5.825  1.5705 -0.1224  1.9061
    1R01   A7fd 2045  -6.613  -1.120  -5.614 -0.3153 -0.0742  0.0942
    1R01   A7fe 2046  -6.632  -1.007  -5.612 -1.0822  3.9564 -0.7274
    1R01   A7ff 2047  -6.476  -1.156  -5.574 -0.0928 -0.1505  0.3866
    1R01   A800 2048  -6.509  -1.228  -5.467  0.4675  0.5516 -0.6449
    1R01   A801 2049  -6.416  -1.260  -5.365  0.1745 -0.3398  0.4991
    1R01   A802 2050  -6.453  -1.324  -5.237 -0.0572 -0.2377  0.8082
    1R01   A803 2051  -6.410  -1.429  -5.238 -0.1063 -2.5899  1.3301
    1R01   A804 2052  -6.560  -1.342  -5.238  1.2719 -4.3251  0.7815
    1R01   A805 2053  -6.419  -1.256  -5.157  0.3165 -3.6733  2.3108
    1R01   A806 2054  -6.290  -1.229  -5.403  0.2874 -0.8570 -0.1065
    1R01   A807 2055  -6.254  -1.157  -5.514 -0.8871  0.2294  0.1288
    1R01   A808 2056  -6.346  -1.106  -5.602  0.0043 -0.1912 -0.6004
    1R01   A809 2057  -6.318  -1.009  -5.709  0.4836  0.3066 -0.9952
    1R01   A80a 2058  -6.413  -0.969  -5.733 -0.1429  0.6066  2.0123
    1R01   A80b 2059  -6.268  -0.922  -5.669 -1.0005 -1.4897  1.5755
    1R01   A80c 2060  -6.288  -1.056  -5.807  1.2256  0.2174 -0.2561
    1R01   A80d 2061  -6.660  -1.196  -5.483 -0.5106  0.2222  0.1243
    1R01   A80e 2062  -6.693  -1.136  -5.403 -1.2451 -4.1295  2.6359
    1R01   A80f 2063  -6.771  -1.294  -5.527  0.3396 -0.1245 -0.9833
    1R01   A810 2064  -6.844  -1.323  -5.451 -1.8204  3.4031 -0.9430
    1R01   A811 2065  -6.826  -1.203  -5.648 -0.4322 -1.4504  0.0715
    1R01   A812 2066  -6.875  -1.109  -5.602 -0.5703 -3.4275  1.8936
    1R01   A813 2067  -6.904  -1.252  -5.709  3.0387  0.8459  0.2153
    1R01   A814 2068  -6.520  -1.417  -5.692  0.1811 -0.8740 -0.1822
    1R01   A815 2069  -6.396  -1.452  -5.750 -0.1524  0.4843 -0.3000
    1R01   A816 2070  -6.358  -1.398  -5.837 -2.1352  1.7896  2.8960
    1R01   A817 2071   2.419   4.922  -4.774 -0.7264  0.7037 -0.2141
    1R01   A818 2072   2.435   4.816  -4.763 -1.2016 -0.5143 -1.9970
    1R01   A819 2073   2.507   4.959  -4.830 -0.4125  0.0014 -0.4739
    1R01   A81a 2074   2.326   4.943  -4.828 -0.2770  1.6385  1.1650
    1R01   A81b 2075   2.415   4.991  -4.629 -0.3284  0.3486  0.0303
    1R01   A81c 2076   2.455   5.139  -4.654 -0.0498  0.2164 -0.8479
    1R01   A81d 2077   2.447   5.195  -4.564 -1.9895  2.7082 -0.5832
    1R01   A81e 2078   2.562   5.149  -4.680 -0.9916 -1.6455  2.2119
    1R01   A81f 2079   2.400   5.188  -4.736  0.6414  0.2811 -3.5936
    1R01   A820 2080   2.504   4.924  -4.532 -0.5091  0.2150 -0.7481
    1R01   A821 2081   2.434   4.895  -4.414 -0.6052  0.5917 -0.4264
    1R01   A822 2082   2.504   4.845  -4.297  0.8738 -0.1672 -0.0286
    1R01   A823 2083   2.449   4.813  -4.205  0.4981  0.0988  1.4200
    1R01   A824 2084   2.641   4.827  -4.311 -0.3387 -0.7875 -0.0348
    1R01   A825 2085   2.767   4.787  -4.236  0.2001  0.2675  0.1363
    1R01   A826 2086   2.753   4.688  -4.201 -1.0281 -1.0012  1.7390
    1R01   A827 2087   2.844   4.819  -4.375  0.2434  0.3751  0.5014
    1R01   A828 2088   2.870   4.734  -4.440 -2.9096  1.3101  0.5069
    1R01   A829 2089   2.957   4.926  -4.338 -0.0287 -0.1371 -0.2250
    1R01   A82a 2090   2.987   4.995  -4.419  3.9202  1.9045  0.8007
    1R01   A82b 2091   3.057   4.838  -4.260 -0.6717  0.3268 -0.1508
    1R01   A82c 2092   3.095   4.758  -4.316 -1.0170  0.0541  2.2237
    1R01   A82d 2093   2.986   4.800  -4.129  0.0548 -0.0327  0.3277
    1R01   A82e 2094   2.979   4.689  -4.119  0.5988 -0.6423  1.4890
    1R01   A82f 2095   2.851   4.874  -4.134 -0.1600 -0.4990  0.3782
    1R01   A830 2096   2.797   4.896  -4.042 -1.9923  0.2611  1.1522
    1R01   A831 2097   2.892   5.001  -4.224 -0.1095 -0.0124 -0.2754
    1R01   A832 2098   2.957   5.068  -4.170  1.5847 -1.6556 -1.3207
    1R01   A833 2099   2.803   5.057  -4.254 -0.2148 -1.1908 -1.7950
    1R01   A834 2100   2.710   4.864  -4.423  0.2698  0.0105  0.1337
    1R01   A835 2101   2.648   4.911  -4.540  0.5903  0.5717 -0.1376
    1R01   A836 2102   2.700   4.941  -4.628  0.4239  0.7564  1.2553
    1R01   A837 2103   2.293   4.929  -4.437  0.8784  0.0367  0.8525
    1R01   A838 2104   2.275   4.981  -4.570 -0.4268  0.6863  0.0915
    1R01   A839 2105   2.161   5.055  -4.611  0.1264  0.5450 -0.5807
    1R01   A83a 2106   2.161   5.114  -4.697 -0.8591  0.0009  1.3389
    1R01   A83b 2107   2.057   5.053  -4.524 -0.3071  0.0675  0.5479
    1R01   A83c 2108   1.977   5.167  -4.481 -0.5244 -0.4659 -0.3758
    1R01   A83d 2109   2.042   5.257  -4.485  2.0121  2.1997  3.0052
    1R01   A83e 2110   1.964   5.092  -4.340 -0.3475 -0.0613  0.2811
    1R01   A83f 2111   2.015   5.146  -4.263 -2.2866 -2.4053 -0.3913
    1R01   A840 2112   1.811   5.084  -4.300  0.0917 -0.8703  0.0854
    1R01   A841 2113   1.786   5.083  -4.197 -1.8070  1.5652 -0.0635
    1R01   A842 2114   1.738   4.995  -4.409 -0.2221 -0.0966 -0.0721
    1R01   A843 2115   1.631   4.993  -4.397  0.4733  1.2205  0.2239
    1R01   A844 2116   1.791   4.873  -4.488 -0.3703  0.3674  0.2780
    1R01   A845 2117   1.806   4.952  -4.608 -0.1746  0.5112  0.4537
    1R01   A846 2118   1.813   4.896  -4.736 -0.0001  0.5659  0.4560
    1R01   A847 2119   1.815   4.966  -4.865 -0.7340  0.8370  0.5438
    1R01   A848 2120   1.857   4.895  -4.943  1.1581  1.7747  0.2934
    1R01   A849 2121   1.886   5.051  -4.858 -0.0074  2.4663 -0.6971
    1R01   A84a 2122   1.710   5.002  -4.886  0.2959  1.8144  0.1974
    1R01   A84b 2123   1.811   4.760  -4.728  0.5748 -0.2411 -1.3573
    1R01   A84c 2124   1.797   4.690  -4.612 -0.0256 -0.1831  0.0033
    1R01   A84d 2125   1.785   4.739  -4.481  0.3818  0.1594 -0.0954
    1R01   A84e 2126   1.734   4.649  -4.368  0.4852  0.6432  1.0753
    1R01   A84f 2127   1.716   4.703  -4.278  0.4335  0.0928 -1.6528
    1R01   A850 2128   1.639   4.605  -4.397 -0.0185  1.5346 -0.2061
    1R01   A851 2129   1.804   4.571  -4.359 -1.4123 -1.0955 -1.7566
    1R01   A852 2130   1.760   5.081  -4.544 -0.7150  1.0251  0.1223
    1R01   A853 2131   1.661   5.109  -4.597 -0.6772  1.2132 -0.7553
    1R01   A854 2132   1.836   5.212  -4.516 -0.0450 -0.3433 -0.0661
    1R01   A855 2133   1.829   5.287  -4.590  1.2988  0.8613  1.5447
    1R01   A856 2134   1.786   5.234  -4.365  0.6106 -0.4847 -1.2441
    1R01   A857 2135   1.683   5.270  -4.362 -3.6420 -2.2481  0.6651
    1R01   A858 2136   1.854   5.303  -4.314  0.1341  0.0821  0.1877
    1R01   A859 2137   2.064   4.991  -4.399 -0.1636  0.2654 -0.0366
    1R01   A85a 2138   2.176   4.929  -4.354 -0.0198  0.6476 -0.6548
    1R01   A85b 2139   2.181   4.902  -4.252 -0.5846 -1.3604  1.8376
    1R01   A85c 2140   1.784   4.623  -3.068 -0.3896 -0.0178  0.1211
    1R01   A85d 2141   1.763   4.730  -3.079  1.5358 -1.3526  1.1133
    1R01   A85e 2142   1.846   4.604  -2.976  2.6806  0.7199  0.4060
    1R01   A85f 2143   1.847   4.594  -3.153  2.4871 -0.4051 -3.1661
    1R01   A860 2144   1.654   4.531  -3.063 -0.1996 -0.1493  0.1593
    1R01   A861 2145   1.612   4.529  -2.913  0.0769  0.2219  0.2483
    1R01   A862 2146   1.697   4.501  -2.844 -0.2448  0.9227  0.0703
    1R01   A863 2147   1.532   4.459  -2.899  0.0405  0.3484  1.1912
    1R01   A864 2148   1.562   4.623  -2.881 -3.8791 -1.2165 -1.4732
    1R01   A865 2149   1.682   4.389  -3.114 -0.0239  0.2016  0.1120
    1R01   A866 2150   1.583   4.357  -3.213 -0.5729 -0.1640 -0.1415
    1R01   A867 2151   1.597   4.243  -3.296 -0.1657 -0.1863  0.1771
    1R01   A868 2152   1.528   4.214  -3.372  2.2847  0.5542 -0.6001
    1R01   A869 2153   1.688   4.154  -3.248 -0.2711  0.3484 -0.3586
    1R01   A86a 2154   1.750   4.019  -3.283  0.3878  0.2555  0.2402
    1R01   A86b 2155   1.816   4.027  -3.368  0.1716  0.2911  0.3732
    1R01   A86c 2156   1.822   4.032  -3.142 -1.1528  0.2942 -0.5972
    1R01   A86d 2157   1.931   4.030  -3.141  0.0442 -1.2318 -1.6704
    1R01   A86e 2158   1.763   3.909  -3.056 -0.6313  0.2534  0.3757
    1R01   A86f 2159   1.761   3.908  -2.953  0.1766 -1.1498  0.3600
    1R01   A870 2160   1.838   3.780  -3.116 -0.0874 -0.8272 -0.0308
    1R01   A871 2161   1.949   3.802  -3.106 -1.1389 -1.1876  1.8059
    1R01   A872 2162   1.789   3.776  -3.269  0.6618  0.1545  0.3925
    1R01   A873 2163   1.871   3.792  -3.329 -0.1949 -0.7359  2.3300
    1R01   A874 2164   1.674   3.882  -3.284 -0.2543 -0.3396  0.4004
    1R01   A875 2165   1.605   3.861  -3.361  0.6464  0.6680 -3.5143
    1R01   A876 2166   1.625   3.891  -3.136 -0.5514  0.3104 -0.0413
    1R01   A877 2167   1.545   3.969  -3.120 -1.5159  2.9648  1.7220
    1R01   A878 2168   1.582   3.793  -3.107 -1.3159 -2.3712  3.3432
    1R01   A879 2169   1.771   4.172  -3.143 -0.2362  0.3492  0.0246
    1R01   A87a 2170   1.777   4.297  -3.075  0.0599  0.5281 -0.6105
    1R01   A87b 2171   1.854   4.325  -3.010  1.5307  0.6183 -1.6577
    1R01   A87c 2172   1.488   4.474  -3.229 -0.0299 -0.1929 -0.8766
    1R01   A87d 2173   1.538   4.585  -3.152 -0.2391  0.2632 -0.8857
    1R01   A87e 2174   1.464   4.710  -3.138  0.3879  0.3031  0.0840
    1R01   A87f 2175   1.493   4.792  -3.076 -2.4458 -0.6211 -0.5493
    1R01   A880 2176   1.348   4.707  -3.222 -0.2565  0.2288 -0.1212
    1R01   A881 2177   1.215   4.788  -3.238  0.6465  0.5291  0.1624
    1R01   A882 2178   1.182   4.816  -3.136  1.2852  2.8847  0.5022
    1R01   A883 2179   1.154   4.649  -3.285  0.0272 -0.2156  0.2252
    1R01   A884 2180   1.095   4.605  -3.206  0.6661  2.4940 -1.1604
    1R01   A885 2181   1.067   4.685  -3.405  0.1391  0.6774  0.3736
    1R01   A886 2182   0.994   4.611  -3.437 -1.4978 -1.3137  1.6259
    1R01   A887 2183   1.153   4.732  -3.525 -0.3267  0.2557  0.5835
    1R01   A888 2184   1.097   4.725  -3.617 -1.1000  0.6381 -1.2855
    1R01   A889 2185   1.303   4.700  -3.552  0.5044 -0.4626 -0.2676
    1R01   A88a 2186   1.348   4.831  -3.515 -0.1526 -0.0200  0.3884
    1R01   A88b 2187   1.478   4.870  -3.484  0.1731  0.7736 -0.3754
    1R01   A88c 2188   1.525   5.006  -3.445 -0.0233  0.3235 -0.1930
    1R01   A88d 2189   1.450   5.059  -3.376 -2.1334  2.7468  0.3813
    1R01   A88e 2190   1.634   4.991  -3.400  0.0048 -0.7721 -1.7859
    1R01   A88f 2191   1.540   5.066  -3.531  0.3419  1.7777  2.4122
    1R01   A890 2192   1.561   4.758  -3.497  0.4922 -0.4966 -0.0675
    1R01   A891 2193   1.522   4.627  -3.521 -0.1965 -0.1140  0.2241
    1R01   A892 2194   1.389   4.591  -3.558  0.3487  0.6239 -0.4509
    1R01   A893 2195   1.341   4.451  -3.579 -0.0219  0.0050 -0.6283
    1R01   A894 2196   1.401   4.380  -3.520  1.0607 -0.5314  1.9518
    1R01   A895 2197   1.345   4.430  -3.687  2.4193  1.2103 -0.1244
    1R01   A896 2198   1.235   4.437  -3.538 -1.6485  1.9370 -0.9077
    1R01   A897 2199   1.207   4.875  -3.479 -0.1636 -0.2406 -0.4783
    1R01   A898 2200   1.176   4.956  -3.545 -1.6774  0.7201  2.0692
    1R01   A899 2201   1.156   4.896  -3.337  0.1999 -0.3533 -1.1592
    1R01   A89a 2202   1.148   4.993  -3.295 -0.3386  1.0444 -0.8380
    1R01   A89b 2203   1.015   4.827  -3.356 -0.6812 -0.1783  0.5233
    1R01   A89c 2204   0.965   4.821  -3.257 -1.9677 -1.9736  1.8917
    1R01   A89d 2205   0.951   4.886  -3.422 -1.7031  2.1007  2.0422
    1R01   A89e 2206   1.290   4.591  -3.270  0.2674  0.5957  0.2792
    1R01   A89f 2207   1.356   4.470  -3.271 -0.1632  0.0503 -0.2681
    1R01   A8a0 2208   1.306   4.384  -3.313  1.8580 -0.7372  1.8521
    1R01   A8a1 2209  -4.821   0.054  -5.021  0.3552  0.9087 -0.4969
    1R01   A8a2 2210  -4.916   0.037  -5.074 -0.8727  1.0829 -0.5055
    1R01   A8a3 2211  -4.831   0.042  -4.912  1.6278  0.4310  0.2258
    1R01   A8a4 2212  -4.799   0.161  -5.025 -0.5211  1.1160 -0.4627
    1R01   A8a5 2213  -4.714  -0.028  -5.093 -0.5841  0.2469  0.2681
    1R01   A8a6 2214  -4.727  -0.182  -5.067 -0.3428  0.6259  0.0022
    1R01   A8a7 2215  -4.654  -0.243  -5.121 -0.5090  1.4263 -1.5303
    1R01   A8a8 2216  -4.818  -0.219  -5.095 -1.4634 -0.3273  3.2886
    1R01   A8a9 2217  -4.711  -0.200  -4.964  2.0217  0.9110 -1.9599
    1R01   A8aa 2218  -4.576   0.024  -5.052 -0.1223 -0.1870  0.1902
    1R01   A8ab 2219  -4.530   0.093  -5.162 -0.5125  0.0183  0.4346
    1R01   A8ac 2220  -4.394   0.130  -5.177  0.6686  0.4351 -0.1802
    1R01   A8ad 2221  -4.354   0.168  -5.270 -1.9215  0.6402 -2.0801
    1R01   A8ae 2222  -4.314   0.086  -5.078 -0.7616 -0.8932  0.1544
    1R01   A8af 2223  -4.166   0.061  -5.066  0.5498 -1.0633  0.8146
    1R01   A8b0 2224  -4.115   0.147  -5.031  2.4725 -4.1241  0.3990
    1R01   A8b1 2225  -4.213  -0.026  -4.942 -0.2758  0.4358  0.2780
    1R01   A8b2 2226  -4.183   0.016  -4.846 -1.9776  0.0249 -0.9358
    1R01   A8b3 2227  -4.156  -0.169  -4.963 -0.0251 -0.2344  0.5743
    1R01   A8b4 2228  -4.210  -0.251  -4.915  0.2251 -1.6170 -1.6739
    1R01   A8b5 2229  -4.002  -0.151  -4.955 -0.1982 -0.0186  0.4998
    1R01   A8b6 2230  -3.966  -0.114  -4.855  0.7850 -0.1087  2.1696
    1R01   A8b7 2231  -3.957  -0.055  -5.076  0.0456  0.7375 -0.4911
    1R01   A8b8 2232  -3.901   0.035  -5.048  1.2015 -0.0128  0.1668
    1R01   A8b9 2233  -4.089  -0.031  -5.165 -0.1771  0.2617 -0.4111
    1R01   A8ba 2234  -4.088  -0.007  -5.273  0.1965 -2.0273 -1.3669
    1R01   A8bb 2235  -4.158  -0.174  -5.124  0.6980 -0.1697  0.5839
    1R01   A8bc 2236  -4.262  -0.189  -5.169 -0.3013  1.2639 -0.1626
    1R01   A8bd 2237  -4.100  -0.265  -5.169 -1.7034 -0.7396  1.0157
    1R01   A8be 2238  -4.354   0.016  -4.973 -0.4709  0.4740 -0.5905
    1R01   A8bf 2239  -4.489  -0.023  -4.950  0.4300  0.2387  0.0404
    1R01   A8c0 2240  -4.514  -0.105  -4.875 -0.3121  0.3570  1.4113
    1R01   A8c1 2241  -4.627   0.103  -5.275 -0.0306  0.4423 -0.1850
    1R01   A8c2 2242  -4.733   0.014  -5.247 -0.4004  0.3351  0.1060
    1R01   A8c3 2243  -4.822  -0.036  -5.350  0.0146  0.7454  0.4031
    1R01   A8c4 2244  -4.903  -0.102  -5.327 -0.1853 -1.1936 -0.0394
    1R01   A8c5 2245  -4.799   0.013  -5.480  0.5119  0.0063  0.1006
    1R01   A8c6 2246  -4.861   0.019  -5.618  0.0462  0.3194 -0.5317
    1R01   A8c7 2247  -4.827  -0.065  -5.669  0.7232  2.8600  0.5846
    1R01   A8c8 2248  -4.762   0.139  -5.639  0.0351  0.3760 -0.1421
    1R01   A8c9 2249  -4.683   0.120  -5.717 -0.3730  1.2349  0.0632
    1R01   A8ca 2250  -4.853   0.260  -5.687 -0.1273 -0.0954 -0.0793
    1R01   A8cb 2251  -4.806   0.338  -5.745 -0.1182 -1.6648 -2.0795
    1R01   A8cc 2252  -4.955   0.298  -5.567 -1.1644  0.3404 -0.0322
    1R01   A8cd 2253  -5.007   0.382  -5.606 -0.5550 -2.7544 -1.0128
    1R01   A8ce 2254  -4.944   0.302  -5.416 -0.3202 -0.5449 -0.5235
    1R01   A8cf 2255  -5.022   0.192  -5.398  0.0192 -0.0881 -0.7060
    1R01   A8d0 2256  -5.102   0.164  -5.279 -0.0166 -1.1018 -0.1281
    1R01   A8d1 2257  -5.221   0.062  -5.277  0.9894 -0.5751  0.5705
    1R01   A8d2 2258  -5.313   0.100  -5.310  1.6570  0.0869 -0.1300
    1R01   A8d3 2259  -5.198  -0.025  -5.332 -1.1575  0.3457 -0.0979
    1R01   A8d4 2260  -5.236   0.030  -5.172  2.3334 -4.0255  0.6917
    1R01   A8d5 2261  -5.073   0.259  -5.179 -0.0386  0.0320  0.2283
    1R01   A8d6 2262  -5.000   0.375  -5.200 -0.1966  0.1693  0.4422
    1R01   A8d7 2263  -4.940   0.410  -5.320 -0.7185 -0.0233  0.6328
    1R01   A8d8 2264  -4.897   0.549  -5.366  0.0067 -0.1589  0.0993
    1R01   A8d9 2265  -4.959   0.581  -5.448 -0.0809 -1.3233 -0.6017
    1R01   A8da 2266  -4.916   0.616  -5.283  2.0710  1.0720  0.7067
    1R01   A8db 2267  -4.795   0.558  -5.395  0.3299 -0.4617  0.0214
    1R01   A8dc 2268  -5.047   0.177  -5.555  0.1679 -0.5983 -0.3237
    1R01   A8dd 2269  -5.153   0.203  -5.574  0.5101  0.5378  0.5985
    1R01   A8de 2270  -5.003   0.069  -5.659  0.3232  0.9572 -0.8350
    1R01   A8df 2271  -5.077  -0.002  -5.685  1.9613  0.5487  0.6478
    1R01   A8e0 2272  -4.948   0.169  -5.773 -0.1429 -0.2503  0.1492
    1R01   A8e1 2273  -5.034   0.225  -5.815 -0.5418 -2.0115  0.6285
    1R01   A8e2 2274  -4.890   0.120  -5.854 -2.8747 -0.9759  1.1911
    1R01   A8e3 2275  -4.711   0.119  -5.498 -0.1894  0.2887 -0.4226
    1R01   A8e4 2276  -4.616   0.161  -5.405 -0.0082  0.6168  0.3734
    1R01   A8e5 2277  -4.533   0.222  -5.442 -0.9764  2.1079  0.5377
    1R01   A8e6 2278   4.457   0.222   3.153 -0.7303  0.8540  0.5199
    1R01   A8e7 2279   4.427   0.270   3.249  1.2450  1.0388  0.6784
    1R01   A8e8 2280   4.437   0.290   3.069 -0.1089  2.3437  1.5109
    1R01   A8e9 2281   4.398   0.131   3.136  0.1955 -1.2514 -0.0933
    1R01   A8ea 2282   4.597   0.166   3.172 -0.7756 -0.5174  0.4873
    1R01   A8eb 2283   4.590   0.046   3.276 -0.6052 -0.2062  0.1621
    1R01   A8ec 2284   4.553   0.073   3.369  0.4787 -2.6284 -0.1877
    1R01   A8ed 2285   4.683  -0.006   3.285 -0.0534 -0.3983 -0.9058
    1R01   A8ee 2286   4.526  -0.030   3.234 -0.6226  0.1961  2.5475
    1R01   A8ef 2287   4.692   0.276   3.225  0.3988  0.0905  0.1920
    1R01   A8f0 2288   4.796   0.286   3.131 -0.4086 -0.0583  0.0849
    1R01   A8f1 2289   4.916   0.358   3.167  0.0589  0.3486  0.1837
    1R01   A8f2 2290   5.010   0.352   3.102  0.4556  2.5144 -0.7985
    1R01   A8f3 2291   4.914   0.423   3.293  0.2934  0.0293  0.2107
    1R01   A8f4 2292   5.010   0.446   3.399 -0.3304 -0.4494  0.5562
    1R01   A8f5 2293   5.050   0.545   3.379  2.2084 -0.6117  0.7347
    1R01   A8f6 2294   4.889   0.454   3.497 -0.4562 -0.0394  0.4735
    1R01   A8f7 2295   4.865   0.557   3.524 -0.8673  0.0643 -0.4870
    1R01   A8f8 2296   4.925   0.356   3.612  0.7966 -0.1875 -0.4748
    1R01   A8f9 2297   4.834   0.323   3.676 -2.1217 -0.3629 -1.4365
    1R01   A8fa 2298   5.042   0.430   3.683  0.1665 -0.4885  0.0660
    1R01   A8fb 2299   5.015   0.538   3.718 -0.9712 -1.9120  0.0393
    1R01   A8fc 2300   5.163   0.412   3.582  0.4178 -0.3379  0.2767
    1R01   A8fd 2301   5.220   0.500   3.563 -1.7413  0.4150 -0.6884
    1R01   A8fe 2302   5.108   0.344   3.453 -0.2656  0.1813  1.1862
    1R01   A8ff 2303   5.175   0.297   3.383  1.7753 -1.4828  0.7165
    1R01   A900 2304   5.004   0.248   3.524 -0.1169 -0.1217 -0.1197
    1R01   A901 2305   5.061   0.177   3.584 -1.8605 -1.6894 -2.0129
    1R01   A902 2306   4.938   0.191   3.465 -1.4344 -0.0100 -1.2693
    1R01   A903 2307   4.806   0.415   3.375 -0.0853 -0.9575  0.0182
    1R01   A904 2308   4.689   0.345   3.351 -0.2591 -0.6268  0.1469
    1R01   A905 2309   4.623   0.324   3.439  1.2292  0.7664  0.7683
    1R01   A906 2310   4.777   0.192   3.019  0.3916 -0.0270 -0.5891
    1R01   A907 2311   4.651   0.117   3.037 -0.7948 -0.2262 -1.0911
    1R01   A908 2312   4.605   0.014   2.952 -0.2138  0.0319 -0.1020
    1R01   A909 2313   4.520  -0.049   2.980 -1.3296  0.6376  0.5472
    1R01   A90a 2314   4.697  -0.014   2.844  0.0778  0.0355 -0.7210
    1R01   A90b 2315   4.734  -0.112   2.734  0.8428  0.2919 -0.4453
    1R01   A90c 2316   4.749  -0.212   2.778 -1.7520 -0.9638 -2.0580
    1R01   A90d 2317   4.867  -0.024   2.716  0.8226 -0.1944 -0.0850
    1R01   A90e 2318   4.959  -0.076   2.753  0.6523  0.7547  2.1391
    1R01   A90f 2319   4.892   0.001   2.565  0.3968 -0.0693  0.2759
    1R01   A910 2320   4.992   0.022   2.528 -1.4960 -0.7882 -0.6548
    1R01   A911 2321   4.767   0.088   2.525 -0.1146 -0.2353  0.2994
    1R01   A912 2322   4.789   0.129   2.427 -2.2984 -0.5131  0.8334
    1R01   A913 2323   4.698   0.199   2.603  0.4128 -0.0807 -1.1951
    1R01   A914 2324   4.579   0.124   2.611 -0.3328  0.4781  0.6509
    1R01   A915 2325   4.456   0.177   2.639  0.2012 -0.1693 -0.6350
    1R01   A916 2326   4.325   0.095   2.626  0.0943  0.0931  0.3445
    1R01   A917 2327   4.305   0.055   2.519 -1.8903 -0.9099 -0.9959
    1R01   A918 2328   4.315   0.008   2.682  3.0179  2.8633  1.5350
    1R01   A919 2329   4.238   0.157   2.643  2.1417  1.5429 -3.9728
    1R01   A91a 2330   4.466   0.315   2.676 -0.4382  0.5630 -0.0845
    1R01   A91b 2331   4.587   0.383   2.670  0.2120 -0.2776  0.2765
    1R01   A91c 2332   4.708   0.335   2.632 -0.7013  0.2670 -0.6036
    1R01   A91d 2333   4.828   0.421   2.592 -0.1172 -0.7133 -0.2297
    1R01   A91e 2334   4.857   0.484   2.675  3.4969  0.2018 -0.0550
    1R01   A91f 2335   4.800   0.485   2.506  0.1844  0.4007  1.5009
    1R01   A920 2336   4.919   0.360   2.575  0.8195 -0.3722  1.5550
    1R01   A921 2337   4.638   0.008   2.533  0.3719  0.3369  0.3021
    1R01   A922 2338   4.593  -0.005   2.430  1.1524 -0.0121  1.3331
    1R01   A923 2339   4.677  -0.129   2.585  0.2244 -0.1795  0.2317
    1R01   A924 2340   4.612  -0.215   2.563  1.1536 -0.3397  1.3875
    1R01   A925 2341   4.821  -0.132   2.512  0.1446 -0.2624  0.7847
    1R01   A926 2342   4.873  -0.225   2.529 -3.4416 -0.9266  1.9717
    1R01   A927 2343   4.802  -0.121   2.398  2.5298 -0.5821 -3.0344
    1R01   A928 2344   4.815   0.057   2.828 -0.1660  0.3668  0.4041
    1R01   A929 2345   4.860   0.158   2.911  0.1776  0.6766 -0.0792
    1R01   A92a 2346   4.961   0.195   2.891  0.0352  1.0957 -1.0659
    1R01   A92b 2347   2.597   3.137   4.164  0.0204  0.2932  0.5191
    1R01   A92c 2348   2.523   3.168   4.237  3.9264  2.0184  0.1152
    1R01   A92d 2349   2.617   3.035   4.188 -1.7141 -1.3665  0.6857
    1R01   A92e 2350   2.686   3.205   4.190  3.1319 -2.8430  2.1189
    1R01   A92f 2351   2.552   3.135   4.012 -0.9563  0.2986  0.6905
    1R01   A930 2352   2.521   3.289   3.981 -0.8003 -0.1252  1.1080
    1R01   A931 2353   2.612   3.352   3.991  0.4519  0.7157 -0.1994
    1R01   A932 2354   2.456   3.320   4.067  0.2201 -0.5090 -0.5986
    1R01   A933 2355   2.473   3.313   3.884  0.4337  2.0962  1.4673
    1R01   A934 2356   2.440   3.038   3.995 -0.2216 -0.4225  0.0606
    1R01   A935 2357   2.480   2.941   3.894 -0.0890 -0.0043 -0.6199
    1R01   A936 2358   2.396   2.843   3.846  0.2623  0.6268 -0.3268
    1R01   A937 2359   2.416   2.766   3.773 -1.5243 -1.4324  1.1535
    1R01   A938 2360   2.271   2.847   3.907 -0.3540  0.0519  0.2696
    1R01   A939 2361   2.138   2.769   3.916  0.5643  0.0209  0.2292
    1R01   A93a 2362   2.154   2.661   3.946  1.9931 -2.4243 -0.4330
    1R01   A93b 2363   2.099   2.864   4.040 -0.2885 -0.1604  0.1710
    1R01   A93c 2364   2.091   2.804   4.128  2.4973 -0.2954  0.7892
    1R01   A93d 2365   1.962   2.931   4.002  0.3629 -0.2182 -0.2529
    1R01   A93e 2366   1.935   3.021   4.054 -0.3135 -1.1042  0.5776
    1R01   A93f 2367   1.872   2.801   4.015 -0.1050 -0.3998 -0.3583
    1R01   A940 2368   1.883   2.748   4.109 -0.3020  1.1620 -0.5306
    1R01   A941 2369   1.904   2.713   3.891 -0.5273 -0.2995  0.0609
    1R01   A942 2370   1.931   2.612   3.913 -1.4750  1.0644 -0.3040
    1R01   A943 2371   2.016   2.790   3.810  0.0049  0.0446 -0.0758
    1R01   A944 2372   2.047   2.765   3.712 -0.5770 -1.8594 -1.9904
    1R01   A945 2373   1.978   2.942   3.845  0.0233  0.0984 -0.2233
    1R01   A946 2374   2.055   3.017   3.813  2.3601  0.0934 -1.9198
    1R01   A947 2375   1.893   2.968   3.784  0.6249  0.0466  0.4006
    1R01   A948 2376   2.233   2.921   4.009 -0.4272  0.0080 -1.1838
    1R01   A949 2377   2.316   3.028   4.062  0.5846  0.2110  0.5402
    1R01   A94a 2378   2.284   3.101   4.133 -0.8253  0.9007  1.3864
    1R01   A94b 2379   2.623   2.967   3.847  0.3677  0.5583 -0.7472
    1R01   A94c 2380   2.666   3.076   3.923 -0.0259 -0.0890 -0.3783
    1R01   A94d 2381   2.807   3.119   3.924  0.4982 -0.2240 -0.5763
    1R01   A94e 2382   2.844   3.200   3.993 -0.8291  1.0323 -0.2066
    1R01   A94f 2383   2.878   3.049   3.825  0.1894 -0.8580  0.6463
    1R01   A950 2384   3.026   3.014   3.788 -0.8123 -0.2276 -0.1796
    1R01   A951 2385   3.073   3.075   3.717  1.4286 -1.8791  0.2445
    1R01   A952 2386   2.968   2.887   3.721  0.3492  0.1896  0.4260
    1R01   A953 2387   2.991   2.884   3.612 -0.3618 -2.4063  0.8419
    1R01   A954 2388   3.036   2.762   3.778 -0.5180 -0.4723  0.2259
    1R01   A955 2389   3.032   2.668   3.713  0.8738  1.8228  0.8359
    1R01   A956 2390   3.000   2.756   3.935  0.3963 -0.6871  0.1397
    1R01   A957 2391   3.060   2.673   3.973  1.1035  0.2526 -0.4457
    1R01   A958 2392   2.867   2.783   4.010  0.6862 -0.0496  0.2626
    1R01   A959 2393   2.920   2.897   4.069 -0.6960  0.2919 -0.7053
    1R01   A95a 2394   2.885   2.927   4.202  0.0122  0.2637 -0.8225
    1R01   A95b 2395   2.955   3.033   4.289  0.2042  0.0899  0.3711
    1R01   A95c 2396   2.921   3.036   4.390  0.1417 -2.8593  2.8354
    1R01   A95d 2397   3.056   3.000   4.302 -2.0461 -1.2087 -1.0923
    1R01   A95e 2398   2.949   3.133   4.250 -0.4083 -1.0800  0.8464
    1R01   A95f 2399   2.767   2.856   4.248  0.3132  0.1944 -0.7397
    1R01   A960 2400   2.708   2.754   4.179  0.6142 -0.5731  0.2243
    1R01   A961 2401   2.761   2.707   4.060 -0.3423 -0.1102 -0.2831
    1R01   A962 2402   2.721   2.575   4.008 -0.3912  0.0275  0.2096
    1R01   A963 2403   2.771   2.534   3.919  2.0583  0.1237  1.5630
    1R01   A964 2404   2.725   2.487   4.079  1.7976  0.0737 -3.3790
    1R01   A965 2405   2.615   2.581   3.975 -1.8822  1.1372 -1.4509
    1R01   A966 2406   3.064   2.887   3.998  0.2634 -0.4519  0.2231
    1R01   A967 2407   3.149   2.864   4.062  1.3568  1.0175  0.4298
    1R01   A968 2408   3.137   2.962   3.881  0.0014 -0.2693  0.5970
    1R01   A969 2409   3.214   3.041   3.899  1.8513 -0.2660 -0.2127
    1R01   A96a 2410   3.182   2.833   3.796  0.8022  0.6054  0.0621
    1R01   A96b 2411   3.251   2.761   3.850 -0.1147 -0.6646  0.2515
    1R01   A96c 2412   3.232   2.862   3.703  3.2431 -0.3784  0.7197
    1R01   A96d 2413   2.839   2.937   3.764 -0.6078 -0.0656 -0.6475
    1R01   A96e 2414   2.705   2.891   3.764 -0.6674 -0.3355 -0.3409
    1R01   A96f 2415   2.676   2.795   3.726 -1.2324  3.3778 -0.3457
    1R01   A970 2416   4.229   2.896   1.246  0.6904 -0.2560  0.8057
    1R01   A971 2417   4.150   2.845   1.198  0.2602 -2.1139  0.7194
    1R01   A972 2418   4.253   2.841   1.333  2.3475  1.7407 -1.6870
    1R01   A973 2419   4.321   2.908   1.188  1.4590  2.8964 -0.2298
    1R01   A974 2420   4.175   3.040   1.284 -0.3060  0.1572  0.0064
    1R01   A975 2421   4.134   3.125   1.155 -0.8070  0.0152  0.4422
    1R01   A976 2422   4.068   3.069   1.091 -1.2272  0.3431  3.3801
    1R01   A977 2423   4.078   3.215   1.182 -0.0009 -1.2362  1.3607
    1R01   A978 2424   4.221   3.158   1.087  1.5867 -1.0016 -2.5122
    1R01   A979 2425   4.283   3.119   1.361 -0.2140  0.2099  0.1375
    1R01   A97a 2426   4.233   3.136   1.497 -0.8686 -0.5466 -0.0986
    1R01   A97b 2427   4.290   3.241   1.578  0.3423  0.1299  0.0851
    1R01   A97c 2428   4.240   3.266   1.670 -0.5361 -2.1893 -0.8088
    1R01   A97d 2429   4.402   3.307   1.517  0.3891  0.4584 -0.5711
    1R01   A97e 2430   4.444   3.457   1.508  0.0195  0.5810  0.9707
    1R01   A97f 2431   4.501   3.484   1.594 -0.3502 -0.2022  1.8885
    1R01   A980 2432   4.519   3.415   1.370  0.0914  0.1843 -0.1764
    1R01   A981 2433   4.626   3.416   1.366  2.1786  1.3580  0.2178
    1R01   A982 2434   4.461   3.500   1.258  0.6163 -0.1236 -0.8331
    1R01   A983 2435   4.478   3.470   1.148 -0.9870  0.6460 -0.0582
    1R01   A984 2436   4.507   3.641   1.307 -0.4021  0.1978 -0.3046
    1R01   A985 2437   4.619   3.651   1.316  0.4797 -0.3142  0.2362
    1R01   A986 2438   4.437   3.681   1.444  0.5662  0.0719  0.3866
    1R01   A987 2439   4.497   3.714   1.533  0.3327 -1.6475 -0.2309
    1R01   A988 2440   4.345   3.560   1.467  0.2472  0.1164  0.4583
    1R01   A989 2441   4.253   3.579   1.530 -1.2025  2.6510 -1.2445
    1R01   A98a 2442   4.318   3.513   1.319  0.2304  0.3348  0.4977
    1R01   A98b 2443   4.256   3.425   1.314  1.3550 -2.6287  1.2987
    1R01   A98c 2444   4.262   3.588   1.262 -0.7812  0.7060  0.4296
    1R01   A98d 2445   4.457   3.270   1.395 -0.1111 -0.0892 -0.3825
    1R01   A98e 2446   4.404   3.174   1.314 -0.7154 -0.7189  0.7683
    1R01   A98f 2447   4.430   3.167   1.210  2.6315  0.8098 -1.2638
    1R01   A990 2448   4.105   3.073   1.511 -0.6646  0.0833  0.2130
    1R01   A991 2449   4.059   3.015   1.387  0.7255 -0.4172  0.0712
    1R01   A992 2450   3.919   2.980   1.370  0.8916  0.5019  0.3318
    1R01   A993 2451   3.866   2.973   1.270  2.4913 -1.7131 -2.2908
    1R01   A994 2452   3.850   2.961   1.489 -0.7756 -0.2340  0.8031
    1R01   A995 2453   3.706   2.981   1.545 -0.3162  0.8747  0.4702
    1R01   A996 2454   3.661   3.078   1.518 -1.3037 -0.0354  1.3699
    1R01   A997 2455   3.768   2.991   1.689 -0.9923  0.3013 -0.3793
    1R01   A998 2456   3.777   3.087   1.744  2.2621 -0.6795 -1.1219
    1R01   A999 2457   3.689   2.886   1.778  0.2035  0.5429 -0.0419
    1R01   A99a 2458   3.690   2.900   1.886  1.7504 -0.0348 -1.1421
    1R01   A99b 2459   3.716   2.744   1.727 -0.0587  0.3516  0.1051
    1R01   A99c 2460   3.662   2.678   1.792 -0.9716 -2.1133 -1.5579
    1R01   A99d 2461   3.848   2.692   1.677  0.3452  0.0644  0.0441
    1R01   A99e 2462   3.809   2.689   1.542  0.2030  0.4322 -0.3710
    1R01   A99f 2463   3.873   2.618   1.441  0.7194 -0.0716  0.1888
    1R01   A9a0 2464   3.825   2.598   1.294 -0.3378 -0.7156  0.0484
    1R01   A9a1 2465   3.900   2.653   1.225  2.1628 -3.1975  3.4030
    1R01   A9a2 2466   3.728   2.651   1.287  2.4677  2.6917 -1.3420
    1R01   A9a3 2467   3.830   2.498   1.266 -0.6260  2.8038 -2.2382
    1R01   A9a4 2468   3.992   2.555   1.490  0.3664  0.4343  0.7243
    1R01   A9a5 2469   4.030   2.558   1.622  0.4430  0.1754 -0.0360
    1R01   A9a6 2470   3.959   2.621   1.721  0.2516  0.7901 -1.1534
    1R01   A9a7 2471   3.977   2.581   1.867 -0.2965  0.7814 -0.9013
    1R01   A9a8 2472   4.015   2.482   1.884  1.8611  1.5534  3.3731
    1R01   A9a9 2473   4.030   2.658   1.926 -0.9657  1.8437  0.3272
    1R01   A9aa 2474   3.881   2.582   1.907 -0.9438  2.2308 -2.0082
    1R01   A9ab 2475   3.663   2.744   1.575 -0.2023  0.9290 -0.2674
    1R01   A9ac 2476   3.588   2.667   1.552 -0.0255  1.7886 -2.7504
    1R01   A9ad 2477   3.592   2.878   1.555 -0.0598  0.8311 -0.2359
    1R01   A9ae 2478   3.515   2.883   1.476  0.6181  1.5119 -0.4259
    1R01   A9af 2479   3.549   2.911   1.702  0.9307  0.6910  0.4034
    1R01   A9b0 2480   3.460   2.856   1.736 -0.5003  1.9784  1.8907
    1R01   A9b1 2481   3.515   3.016   1.717  5.4825  0.5926  2.3971
    1R01   A9b2 2482   3.904   2.984   1.613  0.2558  0.1835  0.1273
    1R01   A9b3 2483   4.024   3.057   1.629 -0.4091 -0.7827 -0.5573
    1R01   A9b4 2484   4.061   3.093   1.726 -0.1421 -0.0752  2.2526
    1R01   A9b5 2485   1.731   1.397  -0.164 -0.5608  0.8345 -0.2490
    1R01   A9b6 2486   1.666   1.434  -0.246 -0.5687 -0.4533 -0.4267
    1R01   A9b7 2487   1.792   1.328  -0.209  1.9140  4.9349 -0.3318
    1R01   A9b8 2488   1.786   1.471  -0.107 -1.4064  2.5425 -0.5005
    1R01   A9b9 2489   1.644   1.326  -0.058  0.0595  0.5493  0.3740
    1R01   A9ba 2490   1.724   1.240   0.047 -0.0702  0.3041 -0.4896
    1R01   A9bb 2491   1.652   1.169   0.095  1.0322 -1.0290 -0.1856
    1R01   A9bc 2492   1.801   1.176  -0.001  0.4461  1.9422 -1.7383
    1R01   A9bd 2493   1.760   1.303   0.129 -0.4970 -0.3584 -1.8803
    1R01   A9be 2494   1.555   1.234  -0.135 -0.0445 -0.2923  0.1398
    1R01   A9bf 2495   1.420   1.259  -0.089 -0.6697  0.1111  0.2064
    1R01   A9c0 2496   1.313   1.188  -0.137  0.2746 -0.0798  0.1670
    1R01   A9c1 2497   1.209   1.209  -0.102  2.7053  1.5886 -0.5859
    1R01   A9c2 2498   1.340   1.110  -0.248 -0.3052  0.8425 -0.2702
    1R01   A9c3 2499   1.282   0.990  -0.311 -0.7035  1.0120  0.4721
    1R01   A9c4 2500   1.200   1.018  -0.380  0.3229 -0.6566 -0.5464
    1R01   A9c5 2501   1.434   0.968  -0.372  0.7783  0.2878  0.7617
    1R01   A9c6 2502   1.433   0.983  -0.484 -1.6927  0.1677 -0.4613
    1R01   A9c7 2503   1.470   0.821  -0.347 -0.5832  0.3750 -0.0923
    1R01   A9c8 2504   1.575   0.793  -0.360  1.5641  1.6285  0.5911
    1R01   A9c9 2505   1.363   0.746  -0.440 -0.4789  1.2425  0.3360
    1R01   A9ca 2506   1.380   0.638  -0.446 -1.6803 -0.2016  2.8926
    1R01   A9cb 2507   1.226   0.755  -0.357 -0.6218 -0.3942 -0.3168
    1R01   A9cc 2508   1.191   0.653  -0.321  0.7524 -1.9171 -0.8746
    1R01   A9cd 2509   1.260   0.852  -0.234  0.2034  0.6780  0.4776
    1R01   A9ce 2510   1.190   0.852  -0.154  1.4780  0.4526  0.2931
    1R01   A9cf 2511   1.411   0.808  -0.207  0.0387 -0.1393 -0.8476
    1R01   A9d0 2512   1.460   0.872  -0.133  1.6661  0.5862 -0.5891
    1R01   A9d1 2513   1.396   0.709  -0.158 -1.4518  0.1730  1.0060
    1R01   A9d2 2514   1.468   1.088  -0.292 -0.9858  0.3747  0.1237
    1R01   A9d3 2515   1.583   1.142  -0.232 -0.1890  0.1089 -0.4896
    1R01   A9d4 2516   1.685   1.115  -0.256 -0.0357  1.9641  1.2644
    1R01   A9d5 2517   1.416   1.383  -0.002  0.9055 -0.1092  0.3878
    1R01   A9d6 2518   1.549   1.421   0.023 -0.2781  0.3259  0.4399
    1R01   A9d7 2519   1.584   1.535   0.091 -0.3650 -0.0666 -0.2542
    1R01   A9d8 2520   1.682   1.573   0.102 -1.1160  1.2775 -0.6496
    1R01   A9d9 2521   1.471   1.610   0.138 -0.3853  0.2945 -1.6550
    1R01   A9da 2522   1.431   1.731   0.220 -0.4297 -0.3404  0.2011
    1R01   A9db 2523   1.455   1.729   0.327 -0.5270  1.6054  0.0499
    1R01   A9dc 2524   1.282   1.689   0.195  0.3997 -0.2856 -0.7989
    1R01   A9dd 2525   1.230   1.655   0.290  2.4007 -1.9233  1.2239
    1R01   A9de 2526   1.208   1.810   0.126 -0.1225 -0.8232  0.1444
    1R01   A9df 2527   1.096   1.811   0.129 -0.7643 -0.2987  0.1056
    1R01   A9e0 2528   1.274   1.835  -0.017  0.4181 -0.0484 -0.1573
    1R01   A9e1 2529   1.221   1.917  -0.064 -0.6526  3.3418  1.0711
    1R01   A9e2 2530   1.345   1.740  -0.119  0.3408 -0.2674 -0.3917
    1R01   A9e3 2531   1.471   1.774  -0.081  0.4444 -0.3332 -0.8002
    1R01   A9e4 2532   1.582   1.758  -0.163  0.3691  0.1609 -0.2900
    1R01   A9e5 2533   1.711   1.826  -0.131 -0.3724  0.5168  0.9626
    1R01   A9e6 2534   1.705   1.879  -0.029  1.8862  0.0614  0.6058
    1R01   A9e7 2535   1.782   1.747  -0.115 -0.3455  1.6595  0.2284
    1R01   A9e8 2536   1.750   1.897  -0.211 -0.0862 -0.7829 -1.9159
    1R01   A9e9 2537   1.561   1.678  -0.276  0.1429  0.3826 -0.4985
    1R01   A9ea 2538   1.435   1.622  -0.303  0.7860 -0.1445 -0.3057
    1R01   A9eb 2539   1.319   1.669  -0.236  0.9296 -0.3763 -0.2580
    1R01   A9ec 2540   1.181   1.633  -0.281  0.1798 -0.0016 -0.9983
    1R01   A9ed 2541   1.165   1.557  -0.370 -0.7797  0.6581 -2.8346
    1R01   A9ee 2542   1.117   1.720  -0.302  0.0175  0.2155 -3.0426
    1R01   A9ef 2543   1.139   1.576  -0.195 -0.2046 -0.7930 -1.0070
    1R01   A9f0 2544   1.425   1.876   0.021  0.3697 -0.7665 -0.2155
    1R01   A9f1 2545   1.447   1.975  -0.024 -0.0455  0.2449  0.2282
    1R01   A9f2 2546   1.440   1.883   0.175  0.1228 -0.1868 -0.7195
    1R01   A9f3 2547   1.525   1.935   0.223 -0.0188  0.0013 -2.2092
    1R01   A9f4 2548   1.292   1.923   0.208  0.4050 -1.2608 -0.0500
    1R01   A9f5 2549   1.277   2.024   0.172  1.0555 -1.4924 -2.1738
    1R01   A9f6 2550   1.265   1.924   0.320  0.5620  0.2809  0.8018
    1R01   A9f7 2551   1.337   1.569   0.125  0.3934  0.0177 -0.1455
    1R01   A9f8 2552   1.303   1.458   0.044 -0.1706 -0.0176 -0.4604
    1R01   A9f9 2553   1.198   1.440   0.029  0.6235 -2.4655  2.2014
    1R01   A9fa 2554   3.279   2.385   3.701  0.2922  0.0640  0.3627
    1R01   A9fb 2555   3.331   2.429   3.789 -0.1567 -0.9279  1.6664
    1R01   A9fc 2556   3.324   2.422   3.616 -1.9815  0.1109 -2.1372
    1R01   A9fd 2557   3.175   2.432   3.688 -2.8523  0.0080 -1.1242
    1R01   A9fe 2558   3.267   2.232   3.699  0.1909  0.0444  0.4277
    1R01   A9ff 2559   3.183   2.183   3.816 -0.0278  0.9330 -0.4193
    1R01   Aa00 2560   3.091   2.228   3.829  2.3500 -0.2197  2.6244
    1R01   Aa01 2561   3.252   2.203   3.901  1.4851  1.2024  2.1640
    1R01   Aa02 2562   3.165   2.076   3.805  0.0676  0.9170  1.6050
    1R01   Aa03 2563   3.409   2.182   3.696  0.3304  0.2406  0.3068
    1R01   Aa04 2564   3.431   2.136   3.563  0.3126  0.6310 -0.0993
    1R01   Aa05 2565   3.549   2.076   3.529  0.1894  0.1719 -0.3370
    1R01   Aa06 2566   3.557   2.013   3.433 -3.0148  1.4959 -1.5628
    1R01   Aa07 2567   3.653   2.066   3.624  0.2926 -0.2598 -0.1471
    1R01   Aa08 2568   3.765   1.967   3.660  0.4754  0.4054 -0.7191
    1R01   Aa09 2569   3.863   1.991   3.617 -0.3615 -1.0646 -2.3200
    1R01   Aa0a 2570   3.739   2.011   3.813  0.2934  0.6141 -0.1514
    1R01   Aa0b 2571   3.827   2.073   3.844  2.8527  0.4903 -0.4568
    1R01   Aa0c 2572   3.704   1.888   3.893  1.1278  0.9567 -0.2793
    1R01   Aa0d 2573   3.654   1.910   3.987 -0.0672 -2.4045  0.4847
    1R01   Aa0e 2574   3.840   1.814   3.895 -0.0860  0.4978  0.3420
    1R01   Aa0f 2575   3.926   1.874   3.934  0.4050  0.7672 -1.6778
    1R01   Aa10 2576   3.863   1.761   3.743  0.2675 -0.2018  1.1262
    1R01   Aa11 2577   3.963   1.779   3.708  1.2898  1.0556 -0.7092
    1R01   Aa12 2578   3.744   1.814   3.662 -0.2211  0.6887  0.3051
    1R01   Aa13 2579   3.733   1.766   3.569 -0.9166 -0.1601  1.7903
    1R01   Aa14 2580   3.633   1.801   3.785  0.3097 -0.2329 -0.1279
    1R01   Aa15 2581   3.614   1.697   3.822 -0.8079  1.9232  0.9116
    1R01   Aa16 2582   3.529   1.835   3.769  1.7453 -0.8760  0.6372
    1R01   Aa17 2583   3.632   2.108   3.757 -0.1676  0.2678 -0.0412
    1R01   Aa18 2584   3.504   2.158   3.799  0.3721 -0.3846  0.1940
    1R01   Aa19 2585   3.473   2.176   3.903  0.3489  0.3796  0.6846
    1R01   Aa1a 2586   3.307   2.143   3.491 -0.7731 -0.1180  0.3980
    1R01   Aa1b 2587   3.206   2.197   3.569  0.0723 -0.0219  0.0736
    1R01   Aa1c 2588   3.068   2.172   3.539 -0.4085  0.4472  0.3586
    1R01   Aa1d 2589   2.991   2.201   3.600  0.5890  1.4950  2.1509
    1R01   Aa1e 2590   3.040   2.105   3.421  0.5414  0.4808  0.1870
    1R01   Aa1f 2591   2.945   1.988   3.373  0.1107 -0.7109 -0.2894
    1R01   Aa20 2592   2.922   1.921   3.456  0.1778 -0.2639 -2.0556
    1R01   Aa21 2593   3.058   1.939   3.282 -0.1844 -0.4193  0.3990
    1R01   Aa22 2594   3.110   1.851   3.321 -0.9657 -0.9039  1.4297
    1R01   Aa23 2595   2.980   1.919   3.144 -0.1915 -0.1767  0.5175
    1R01   Aa24 2596   3.033   1.855   3.068 -0.4896  3.2307 -1.7469
    1R01   Aa25 2597   2.943   2.070   3.090 -0.0950 -0.0806  0.3142
    1R01   Aa26 2598   2.904   2.068   2.984  0.7953  0.4949  0.8688
    1R01   Aa27 2599   3.009   2.207   3.110  0.4422 -0.8917  0.3319
    1R01   Aa28 2600   2.903   2.249   3.188 -0.2194 -0.2275 -0.3788
    1R01   Aa29 2601   2.920   2.359   3.274  0.1577  0.2764 -0.2688
    1R01   Aa2a 2602   2.827   2.385   3.385 -0.4389 -0.1023 -0.1843
    1R01   Aa2b 2603   2.884   2.386   3.484 -0.1511 -1.2098 -2.1381
    1R01   Aa2c 2604   2.781   2.477   3.374  1.4033 -0.0502  1.1592
    1R01   Aa2d 2605   2.752   2.307   3.389 -1.7040  0.9062  1.6837
    1R01   Aa2e 2606   3.038   2.429   3.249 -0.4608  0.7972  0.0048
    1R01   Aa2f 2607   3.146   2.396   3.161  0.1449  0.2051  0.9043
    1R01   Aa30 2608   3.130   2.275   3.082 -0.5946  0.5034  0.0073
    1R01   Aa31 2609   3.252   2.206   3.016  0.2632  0.5614 -0.0953
    1R01   Aa32 2610   3.329   2.157   3.081  1.7826  1.1283  1.5696
    1R01   Aa33 2611   3.314   2.280   2.965  2.3824 -0.1452 -1.7341
    1R01   Aa34 2612   3.218   2.123   2.953  0.4840 -2.2011  2.1360
    1R01   Aa35 2613   2.828   2.115   3.190 -0.0844  0.0096 -0.7869
    1R01   Aa36 2614   2.734   2.126   3.141  1.5562 -0.7044  0.5643
    1R01   Aa37 2615   2.810   2.007   3.294 -0.2470 -0.0630 -0.1483
    1R01   Aa38 2616   2.722   2.001   3.361  1.1802  1.2791  0.4990
    1R01   Aa39 2617   2.839   1.879   3.204 -0.0653 -0.5026 -0.7019
    1R01   Aa3a 2618   2.764   1.874   3.125 -1.9982  2.0095 -0.7202
    1R01   Aa3b 2619   2.845   1.785   3.256  0.2048  1.7547  0.0653
    1R01   Aa3c 2620   3.138   2.060   3.336  0.6402 -1.1927  0.0114
    1R01   Aa3d 2621   3.273   2.085   3.366 -0.6661 -0.3754 -0.1940
    1R01   Aa3e 2622   3.357   2.043   3.314  1.0456  0.2791  1.7058
    1R01   Aa3f 2623   3.710   2.502   4.156 -1.3031  0.3123  0.1104
    1R01   Aa40 2624   3.794   2.488   4.087  2.6709  0.5377  0.2554
    1R01   Aa41 2625   3.745   2.571   4.237 -1.1013 -0.4332  0.1395
    1R01   Aa42 2626   3.688   2.406   4.196  0.5830 -0.8454 -0.1459
    1R01   Aa43 2627   3.584   2.560   4.097 -0.2329  0.1026 -0.2674
    1R01   Aa44 2628   3.523   2.454   4.001 -0.6274 -0.3791  1.2057
    1R01   Aa45 2629   3.515   2.362   4.053  0.5740  1.0433 -0.0725
    1R01   Aa46 2630   3.562   2.450   3.896  0.7508  3.5806 -1.0342
    1R01   Aa47 2631   3.415   2.487   3.986  0.1595  3.0899  1.4218
    1R01   Aa48 2632   3.615   2.687   4.024  0.4951  0.1176  0.2073
    1R01   Aa49 2633   3.520   2.789   4.066  0.7156  0.6085  0.2734
    1R01   Aa4a 2634   3.529   2.925   4.014  0.4953 -0.1148  0.1506
    1R01   Aa4b 2635   3.457   2.998   4.025 -1.1330 -2.4073 -1.5192
    1R01   Aa4c 2636   3.647   2.950   3.938  1.1812  0.3604 -0.1074
    1R01   Aa4d 2637   3.673   3.039   3.825  0.0705 -0.2491  0.7087
    1R01   Aa4e 2638   3.742   3.116   3.863  2.8799  1.3657 -2.6520
    1R01   Aa4f 2639   3.760   2.920   3.766 -0.8226  0.4650  0.2325
    1R01   Aa50 2640   3.865   2.929   3.776 -1.3833  0.3463  0.7672
    1R01   Aa51 2641   3.713   2.889   3.625  0.3394  0.5272 -0.5283
    1R01   Aa52 2642   3.737   2.794   3.579  0.0063  2.4150  0.5517
    1R01   Aa53 2643   3.744   3.014   3.549  0.2948  0.1737 -0.0263
    1R01   Aa54 2644   3.718   2.991   3.446 -2.1535  1.2195 -1.2269
    1R01   Aa55 2645   3.660   3.128   3.609 -0.6143  0.3723 -0.2113
    1R01   Aa56 2646   3.599   3.168   3.530 -0.4075  1.2158 -0.8217
    1R01   Aa57 2647   3.572   3.072   3.718  0.6902  0.2695  0.4207
    1R01   Aa58 2648   3.483   3.125   3.737  0.8002  2.8555 -0.3239
    1R01   Aa59 2649   3.556   2.926   3.657  1.7755 -0.0641  0.5630
    1R01   Aa5a 2650   3.495   2.933   3.567  0.3797 -0.8520 -4.3023
    1R01   Aa5b 2651   3.511   2.851   3.719 -0.3573 -0.5774 -2.4614
    1R01   Aa5c 2652   3.718   2.847   3.890  0.4128  0.3536  0.0548
    1R01   Aa5d 2653   3.721   2.714   3.930 -0.3840 -0.5492 -0.0004
    1R01   Aa5e 2654   3.778   2.633   3.886  0.5194 -2.6571 -0.1118
    1R01   Aa5f 2655   3.433   2.733   4.169 -0.7309  0.0680 -0.1157
    1R01   Aa60 2656   3.467   2.596   4.195 -0.4490 -0.2348  0.4265
    1R01   Aa61 2657   3.395   2.514   4.285 -0.2894  0.0522 -0.0510
    1R01   Aa62 2658   3.426   2.413   4.318  1.0356 -0.2707  0.2041
    1R01   Aa63 2659   3.281   2.576   4.343 -0.2486 -1.3948 -0.4352
    1R01   Aa64 2660   3.169   2.548   4.441  0.3356 -0.5946  0.4517
    1R01   Aa65 2661   3.089   2.475   4.409 -2.8265 -2.7864  0.3752
    1R01   Aa66 2662   3.123   2.702   4.410  0.2892  0.1316 -0.3093
    1R01   Aa67 2663   3.027   2.703   4.357 -1.2262 -1.5971  1.4587
    1R01   Aa68 2664   3.102   2.764   4.548 -0.5405 -0.2488 -0.6157
    1R01   Aa69 2665   3.031   2.852   4.545 -1.4491  0.2204  1.3076
    1R01   Aa6a 2666   3.244   2.788   4.613 -0.0878  0.1982 -0.2962
    1R01   Aa6b 2667   3.219   2.835   4.709 -3.4189 -1.8361 -1.7788
    1R01   Aa6c 2668   3.378   2.830   4.555  0.0557 -0.7735  0.2118
    1R01   Aa6d 2669   3.431   2.709   4.564 -0.4470 -0.0518 -0.5197
    1R01   Aa6e 2670   3.568   2.682   4.541 -0.2208  0.2547 -0.1236
    1R01   Aa6f 2671   3.636   2.551   4.579 -0.3535  0.4419 -0.5289
    1R01   Aa70 2672   3.572   2.499   4.652  0.6139 -1.4017 -0.4852
    1R01   Aa71 2673   3.737   2.561   4.611 -0.6376 -0.0843 -2.3501
    1R01   Aa72 2674   3.642   2.482   4.501 -0.2348  0.3983  0.9976
    1R01   Aa73 2675   3.639   2.796   4.502 -0.0629 -0.6608  0.0908
    1R01   Aa74 2676   3.590   2.921   4.491  0.2689  0.4413 -0.1301
    1R01   Aa75 2677   3.455   2.948   4.521 -0.8659 -0.3375 -1.4849
    1R01   Aa76 2678   3.403   3.087   4.533 -0.1571  0.1827 -0.3370
    1R01   Aa77 2679   3.407   3.126   4.433  1.0819 -3.3880 -2.2881
    1R01   Aa78 2680   3.468   3.147   4.600  0.0579 -1.2206  1.9745
    1R01   Aa79 2681   3.301   3.100   4.569  0.0601  1.9449 -0.3973
    1R01   Aa7a 2682   3.305   2.644   4.635 -0.3308 -0.3949  0.0312
    1R01   Aa7b 2683   3.310   2.632   4.745  0.8781 -0.4686 -0.0825
    1R01   Aa7c 2684   3.180   2.544   4.596  0.2147  0.2297  0.2039
    1R01   Aa7d 2685   3.190   2.442   4.637 -2.0120 -1.9762  0.9540
    1R01   Aa7e 2686   3.057   2.638   4.634  0.5043 -0.1515  0.2964
    1R01   Aa7f 2687   2.956   2.605   4.599 -1.8050  1.3665 -0.2216
    1R01   Aa80 2688   3.040   2.662   4.739 -2.8157 -2.1289  0.1077
    1R01   Aa81 2689   3.244   2.710   4.320 -1.2694  0.0790  0.0631
    1R01   Aa82 2690   3.325   2.796   4.239 -0.2643 -0.2447  0.3583
    1R01   Aa83 2691   3.301   2.901   4.229  0.8715  1.2297  1.2313
    1R01   Aa84 2692   2.528   2.258   4.093  0.0851 -0.6042 -0.4341
    1R01   Aa85 2693   2.547   2.358   4.071 -1.6547 -1.0030 -0.6858
    1R01   Aa86 2694   2.619   2.203   4.114 -0.1327 -0.7782 -0.9442
    1R01   Aa87 2695   2.484   2.210   4.001 -2.0271 -0.6375 -1.3833
    1R01   Aa88 2696   2.435   2.247   4.211 -0.5642 -0.1108 -0.0812
    1R01   Aa89 2697   2.356   2.377   4.218 -0.3238 -0.4285  0.2576
    1R01   Aa8a 2698   2.306   2.381   4.316 -0.9306 -0.9123 -0.8617
    1R01   Aa8b 2699   2.274   2.380   4.145 -1.9841  2.4321  3.3429
    1R01   Aa8c 2700   2.421   2.463   4.207  2.8048 -3.5563 -2.1263
    1R01   Aa8d 2701   2.505   2.220   4.336 -0.6323  0.6167  0.0997
    1R01   Aa8e 2702   2.454   2.102   4.391 -0.2688 -0.1371 -0.7893
    1R01   Aa8f 2703   2.500   2.067   4.521 -0.6645 -0.0297  0.1414
    1R01   Aa90 2704   2.458   1.978   4.567 -4.1556  3.8908 -0.4342
    1R01   Aa91 2705   2.604   2.136   4.579 -0.2937  0.4230 -0.4731
    1R01   Aa92 2706   2.639   2.177   4.717 -0.8010 -0.0211 -0.6957
    1R01   Aa93 2707   2.711   2.104   4.764 -1.0411 -0.4052 -0.8657
    1R01   Aa94 2708   2.712   2.303   4.653  0.1043 -0.0321  0.4928
    1R01   Aa95 2709   2.819   2.303   4.666  1.6226 -2.3794 -1.2180
    1R01   Aa96 2710   2.640   2.431   4.713 -0.6113  0.4791 -0.3611
    1R01   Aa97 2711   2.648   2.528   4.670 -1.9033  0.2515 -0.9180
    1R01   Aa98 2712   2.682   2.419   4.861  0.0587 -0.2050 -0.4234
    1R01   Aa99 2713   2.790   2.418   4.872 -1.2712 -0.5901  1.6981
    1R01   Aa9a 2714   2.608   2.291   4.925 -0.1800  0.5042 -0.3856
    1R01   Aa9b 2715   2.671   2.213   4.975  1.4083  1.2546 -0.5911
    1R01   Aa9c 2716   2.525   2.231   4.812 -0.1043  0.8134  0.0928
    1R01   Aa9d 2717   2.446   2.152   4.835 -1.2969 -1.8201 -0.5471
    1R01   Aa9e 2718   2.491   2.368   4.734  0.6117  0.6969 -0.0126
    1R01   Aa9f 2719   2.444   2.347   4.642 -0.0145  0.0213  1.9272
    1R01   Aaa0 2720   2.437   2.444   4.798  3.1203 -2.2909  3.9972
    1R01   Aaa1 2721   2.658   2.245   4.523  0.4506  0.2109 -0.6477
    1R01   Aaa2 2722   2.607   2.293   4.401  0.4779  0.0014 -0.9356
    1R01   Aaa3 2723   2.653   2.381   4.348  1.4078 -0.1168 -2.6631
    1R01   Aaa4 2724   2.350   2.046   4.306  0.4851 -1.3538 -0.2809
    1R01   Aaa5 2725   2.337   2.130   4.193 -0.5141 -1.0347  0.4853
    1R01   Aaa6 2726   2.241   2.118   4.094  0.3005  0.2529 -0.5503
    1R01   Aaa7 2727   2.228   2.195   4.016 -2.1511 -0.0323  1.0306
    1R01   Aaa8 2728   2.177   1.996   4.101  0.0997 -0.1114  0.2745
    1R01   Aaa9 2729   2.062   1.928   4.034  0.5604 -0.1588  0.1333
    1R01   Aaaa 2730   1.971   1.990   4.053  1.6927  1.1248 -3.3876
    1R01   Aaab 2731   2.076   1.832   4.162  0.4331  0.6011  0.2382
    1R01   Aaac 2732   1.990   1.847   4.236 -0.6957 -2.0113 -0.4683
    1R01   Aaad 2733   2.065   1.690   4.110 -0.1638 -0.9496 -0.5924
    1R01   Aaae 2734   2.045   1.614   4.183  0.8178 -0.4899 -0.7595
    1R01   Aaaf 2735   2.195   1.662   4.022 -0.0177 -0.9246 -0.6212
    1R01   Aab0 2736   2.214   1.556   4.006  0.1995  0.8921 -0.6912
    1R01   Aab1 2737   2.337   1.728   4.041 -0.1106 -0.8479  0.3573
    1R01   Aab2 2738   2.325   1.792   3.922 -0.5961 -0.6149 -0.3518
    1R01   Aab3 2739   2.432   1.863   3.858 -0.0384 -1.1238 -0.1871
    1R01   Aab4 2740   2.432   1.926   3.714 -0.1585 -0.3170 -0.3767
    1R01   Aab5 2741   2.529   1.947   3.679  0.9245 -1.7702  0.3997
    1R01   Aab6 2742   2.375   2.019   3.721  0.3800 -0.0838 -2.8554
    1R01   Aab7 2743   2.380   1.861   3.649  1.5918  0.7852 -0.6110
    1R01   Aab8 2744   2.548   1.869   3.938 -0.2806  0.0967 -0.1292
    1R01   Aab9 2745   2.559   1.807   4.062  0.0572 -0.3670  0.3614
    1R01   Aaba 2746   2.455   1.730   4.120 -0.0096 -0.0060  0.7850
    1R01   Aabb 2747   2.485   1.651   4.246 -0.1942  0.1768  0.1676
    1R01   Aabc 2748   2.392   1.593   4.269  0.9579  2.2760  0.8786
    1R01   Aabd 2749   2.571   1.579   4.236 -1.3312  0.6663  0.1463
    1R01   Aabe 2750   2.509   1.719   4.334 -1.1430 -1.3664  1.8624
    1R01   Aabf 2751   2.183   1.746   3.892  0.2419 -0.8044 -0.2992
    1R01   Aac0 2752   2.180   1.695   3.798  3.1334  1.6588 -0.6505
    1R01   Aac1 2753   2.040   1.828   3.907  0.1948 -0.2697  0.3092
    1R01   Aac2 2754   1.989   1.867   3.817  3.1254 -2.4389  0.9499
    1R01   Aac3 2755   1.966   1.719   3.995 -0.4810 -0.2595 -0.0671
    1R01   Aac4 2756   1.937   1.632   3.942 -1.1929  0.2506  1.5683
    1R01   Aac5 2757   1.875   1.756   4.035  2.5705 -1.7367  4.3048
    1R01   Aac6 2758   2.182   1.913   4.207 -0.4118 -0.5960 -0.3665
    1R01   Aac7 2759   2.271   1.932   4.315  0.0453 -0.2425 -0.2294
    1R01   Aac8 2760   2.279   1.867   4.401  0.2217 -1.1588  0.3498
    1R01   Aac9 2761   2.127   6.353   2.604 -0.0528  0.1264 -0.7264
    1R01   Aaca 2762   2.045   6.342   2.673  1.6909  2.2421  1.4072
    1R01   Aacb 2763   2.087   6.330   2.505  1.1718 -1.4041 -1.0515
    1R01   Aacc 2764   2.189   6.266   2.646  4.7966  1.8255  1.1902
    1R01   Aacd 2765   2.179   6.497   2.629 -0.8610  0.2566 -0.2618
    1R01   Aace 2766   2.065   6.596   2.606 -0.6322  0.3777  0.0064
    1R01   Aacf 2767   2.015   6.575   2.510  1.6820  1.3356 -0.4467
    1R01   Aad0 2768   1.998   6.591   2.692 -0.6267 -0.4379 -0.1688
    1R01   Aad1 2769   2.108   6.700   2.599  0.0338  2.6830 -0.8192
    1R01   Aad2 2770   2.300   6.514   2.533  0.3007  0.4313 -0.3962
    1R01   Aad3 2771   2.417   6.535   2.616  0.2303 -0.0168 -0.3333
    1R01   Aad4 2772   2.546   6.544   2.567 -0.0514  0.0217  0.2124
    1R01   Aad5 2773   2.635   6.555   2.625  0.0902  0.1625 -1.7996
    1R01   Aad6 2774   2.543   6.552   2.424  0.0672 -0.4422  0.5510
    1R01   Aad7 2775   2.638   6.508   2.317  0.1153 -0.7524 -0.1450
    1R01   Aad8 2776   2.671   6.402   2.341  0.5855  0.3152  1.5595
    1R01   Aad9 2777   2.514   6.514   2.217 -0.9254  0.0754 -0.6590
    1R01   Aada 2778   2.496   6.418   2.171  1.0270  0.2068 -0.5883
    1R01   Aadb 2779   2.555   6.613   2.105  0.4504 -0.1534  0.3854
    1R01   Aadc 2780   2.466   6.651   2.046  0.4907  0.6178 -1.4938
    1R01   Aadd 2781   2.655   6.527   2.027  0.0459 -0.0465  0.4946
    1R01   Aade 2782   2.615   6.428   1.999  0.9209 -1.4325 -0.9465
    1R01   Aadf 2783   2.783   6.511   2.120  0.5951 -0.5718 -0.1778
    1R01   Aae0 2784   2.799   6.406   2.149  1.7836 -0.9710  0.5486
    1R01   Aae1 2785   2.750   6.601   2.246  0.0359  0.3169 -0.0948
    1R01   Aae2 2786   2.833   6.645   2.304  1.5411  0.7248  0.9237
    1R01   Aae3 2787   2.650   6.703   2.186 -0.3457 -0.4100  0.0036
    1R01   Aae4 2788   2.707   6.778   2.127 -0.3934  0.0031  1.3818
    1R01   Aae5 2789   2.603   6.760   2.268 -0.4034 -0.2591  1.3322
    1R01   Aae6 2790   2.432   6.541   2.343  0.6436  0.8123  0.0241
    1R01   Aae7 2791   2.305   6.514   2.392  0.7256  0.3316  0.2621
    1R01   Aae8 2792   2.215   6.482   2.340 -2.6469 -2.7411 -0.1301
    1R01   Aae9 2793   2.379   6.528   2.764  0.1015 -0.2064  0.1029
    1R01   Aaea 2794   2.237   6.515   2.772  0.4970 -0.1790  0.1567
    1R01   Aaeb 2795   2.161   6.504   2.885 -0.6912  0.1515 -0.6110
    1R01   Aaec 2796   2.056   6.466   2.883  2.2337 -2.1097  2.8534
    1R01   Aaed 2797   2.245   6.502   2.997 -0.4453  0.2108  0.4109
    1R01   Aaee 2798   2.247   6.443   3.132 -0.5656  0.4502  0.4866
    1R01   Aaef 2799   2.202   6.514   3.202  1.2246 -0.0412 -1.3760
    1R01   Aaf0 2800   2.407   6.460   3.138 -0.3377 -0.8202  0.9371
    1R01   Aaf1 2801   2.461   6.536   3.197  0.9940  0.3904  0.3764
    1R01   Aaf2 2802   2.462   6.316   3.172 -0.8647 -0.4408  0.3284
    1R01   Aaf3 2803   2.554   6.319   3.224  1.5817  1.4529 -0.2586
    1R01   Aaf4 2804   2.432   6.229   3.048  0.4315 -0.1727  0.1496
    1R01   Aaf5 2805   2.470   6.274   2.957 -1.1365 -1.3398 -0.6628
    1R01   Aaf6 2806   2.428   6.074   3.050 -0.3394 -0.3254 -0.1665
    1R01   Aaf7 2807   2.295   6.066   3.060 -0.2436  1.1313 -0.3038
    1R01   Aaf8 2808   2.227   5.949   3.020 -0.0512  0.5753 -0.2832
    1R01   Aaf9 2809   2.084   5.943   2.970  0.8559  0.3184 -0.1028
    1R01   Aafa 2810   2.036   5.855   3.006  1.2799  0.7957 -1.0189
    1R01   Aafb 2811   2.089   5.935   2.860 -0.3626  1.5428 -1.5412
    1R01   Aafc 2812   2.027   6.033   2.990 -0.6374  2.4026 -1.7127
    1R01   Aafd 2813   2.309   5.834   2.995  0.5031 -0.2629 -0.3195
    1R01   Aafe 2814   2.453   5.842   3.006  0.0611 -0.3565 -0.8257
    1R01   Aaff 2815   2.515   5.967   3.033 -0.1535 -0.4368 -0.2280
    1R01   Ab00 2816   2.671   5.980   3.009  0.4684 -0.3685  0.1613
    1R01   Ab01 2817   2.721   6.062   3.074  2.2353  0.6856  0.9151
    1R01   Ab02 2818   2.712   5.885   3.037  1.1326  0.1866 -0.3800
    1R01   Ab03 2819   2.700   6.002   2.901  2.1741 -0.4111 -2.2052
    1R01   Ab04 2820   2.270   6.211   3.045  0.1974  0.1709 -0.2366
    1R01   Ab05 2821   2.212   6.235   2.954  1.3806 -0.9032 -2.4042
    1R01   Ab06 2822   2.219   6.291   3.171 -0.0019  0.3737 -0.0889
    1R01   Ab07 2823   2.121   6.276   3.213 -0.8643 -0.9361 -1.9628
    1R01   Ab08 2824   2.340   6.271   3.273  0.0803 -0.9334 -0.7344
    1R01   Ab09 2825   2.354   6.171   3.308  0.0936  1.1353  0.4231
    1R01   Ab0a 2826   2.327   6.349   3.359 -2.5342 -0.8362 -2.3204
    1R01   Ab0b 2827   2.384   6.519   2.996 -0.7335  0.2376  0.7153
    1R01   Ab0c 2828   2.460   6.526   2.879 -0.6029  0.6207  0.1691
    1R01   Ab0d 2829   2.567   6.506   2.879 -1.0331  2.6598 -1.4570
    1R01   Ab0e 2830   3.003   5.162   2.810 -0.4401  0.1247  0.3925
    1R01   Ab0f 2831   3.064   5.144   2.720  0.3098 -1.7291  0.8449
    1R01   Ab10 2832   2.929   5.231   2.780  3.1544  1.1494 -0.1532
    1R01   Ab11 2833   3.066   5.197   2.887 -1.2367  0.3572 -0.1715
    1R01   Ab12 2834   2.940   5.026   2.846  0.3196  0.5934 -0.2726
    1R01   Ab13 2835   3.063   4.936   2.838  0.6619  0.1909  0.5666
    1R01   Ab14 2836   3.031   4.836   2.856  1.5207  1.5026  1.2397
    1R01   Ab15 2837   3.105   4.936   2.734  0.2273 -0.4804 -1.4182
    1R01   Ab16 2838   3.144   4.973   2.908  0.6198  2.1980 -0.3880
    1R01   Ab17 2839   2.831   4.990   2.740  0.0616  0.0406 -0.8592
    1R01   Ab18 2840   2.721   4.938   2.817  0.3495 -0.8087 -0.7847
    1R01   Ab19 2841   2.615   4.870   2.755  0.4479  0.5402  0.1312
    1R01   Ab1a 2842   2.531   4.828   2.805 -1.6834  1.3706  1.4576
    1R01   Ab1b 2843   2.633   4.858   2.615  0.9588 -0.2601  0.9482
    1R01   Ab1c 2844   2.554   4.816   2.484  0.0810 -0.4208 -0.1501
    1R01   Ab1d 2845   2.462   4.886   2.473 -0.8314 -0.7964 -0.1058
    1R01   Ab1e 2846   2.681   4.875   2.409 -0.2188  0.5205  0.4190
    1R01   Ab1f 2847   2.671   4.968   2.351  1.3354  0.2333  0.0743
    1R01   Ab20 2848   2.720   4.763   2.312 -0.3361  0.2689  0.4849
    1R01   Ab21 2849   2.819   4.762   2.268  0.7648 -1.3544  2.6269
    1R01   Ab22 2850   2.597   4.775   2.218 -0.5804  0.0755  0.1451
    1R01   Ab23 2851   2.565   4.878   2.188  1.3601  1.3267  0.1133
    1R01   Ab24 2852   2.478   4.697   2.291  0.9598 -0.1452  0.0284
    1R01   Ab25 2853   2.384   4.746   2.299 -0.3728 -0.2879 -1.8158
    1R01   Ab26 2854   2.533   4.668   2.430 -0.0189  0.1635  0.1020
    1R01   Ab27 2855   2.477   4.595   2.492 -0.8396 -0.8542  0.6827
    1R01   Ab28 2856   2.681   4.633   2.389 -0.0862 -0.8542 -0.7883
    1R01   Ab29 2857   2.685   4.543   2.329 -0.2690  2.7501 -1.2720
    1R01   Ab2a 2858   2.742   4.618   2.480  0.3124 -0.9189 -2.0055
    1R01   Ab2b 2859   2.737   4.906   2.544  0.0849  0.1191 -0.2917
    1R01   Ab2c 2860   2.839   4.986   2.600 -0.7149 -0.8785 -0.5053
    1R01   Ab2d 2861   2.921   5.025   2.537  0.5512 -0.8764  0.6963
    1R01   Ab2e 2862   2.740   4.966   2.959  0.6358  0.3586  0.1548
    1R01   Ab2f 2863   2.874   5.011   2.982  0.8964 -0.7474  0.5175
    1R01   Ab30 2864   2.923   5.017   3.107  0.5738  0.0891  0.3924
    1R01   Ab31 2865   3.024   5.037   3.128  1.4622 -0.1048 -1.0560
    1R01   Ab32 2866   2.825   4.993   3.207  0.0468  0.1480  0.5135
    1R01   Ab33 2867   2.820   4.954   3.356 -0.0528  0.1998 -0.0531
    1R01   Ab34 2868   2.878   4.867   3.381  1.7011  2.5075 -2.4660
    1R01   Ab35 2869   2.667   4.914   3.322  0.1085  0.1910 -0.5390
    1R01   Ab36 2870   2.646   4.809   3.324 -0.3883  0.1752 -1.9044
    1R01   Ab37 2871   2.579   4.973   3.439  0.3505  0.2746  0.5415
    1R01   Ab38 2872   2.491   4.914   3.474  0.9518  1.5044 -1.4540
    1R01   Ab39 2873   2.586   5.129   3.418  0.4356 -1.0319 -0.3835
    1R01   Ab3a 2874   2.519   5.173   3.494  1.4059  2.3555  0.5509
    1R01   Ab3b 2875   2.590   5.207   3.286  0.3507  0.4215 -0.5560
    1R01   Ab3c 2876   2.724   5.245   3.306 -0.0640  0.5800 -0.3240
    1R01   Ab3d 2877   2.794   5.321   3.214  0.2706  0.9769  0.4057
    1R01   Ab3e 2878   2.933   5.370   3.254  0.3029  0.0816 -0.2135
    1R01   Ab3f 2879   2.920   5.442   3.340  2.7849 -1.2022  2.2823
    1R01   Ab40 2880   2.978   5.417   3.164 -1.1670 -2.2863 -2.5290
    1R01   Ab41 2881   2.994   5.295   3.302 -0.2018 -1.2717  0.9627
    1R01   Ab42 2882   2.710   5.386   3.115 -0.1843  0.5185  0.4663
    1R01   Ab43 2883   2.571   5.356   3.109  0.3648 -0.2756 -0.0467
    1R01   Ab44 2884   2.500   5.267   3.187  0.3452 -0.3749 -0.4501
    1R01   Ab45 2885   2.347   5.239   3.172 -0.1206 -0.3981 -0.5106
    1R01   Ab46 2886   2.304   5.159   3.230  1.5271 -3.0141 -0.2333
    1R01   Ab47 2887   2.283   5.328   3.195  0.1892  0.9864 -0.4080
    1R01   Ab48 2888   2.327   5.221   3.066 -1.8315  0.7945 -1.2397
    1R01   Ab49 2889   2.736   5.172   3.439  0.6925 -0.5601  0.0205
    1R01   Ab4a 2890   2.755   5.254   3.510 -1.7239 -1.0782 -0.0807
    1R01   Ab4b 2891   2.817   5.047   3.477  0.0598  0.1729 -0.3938
    1R01   Ab4c 2892   2.920   5.062   3.518  2.3556  1.8622  0.7053
    1R01   Ab4d 2893   2.695   4.976   3.551  1.1498 -0.7678  0.0334
    1R01   Ab4e 2894   2.715   4.876   3.585 -0.3939 -1.8867 -1.5811
    1R01   Ab4f 2895   2.669   5.026   3.649  1.5426 -0.9877 -2.0043
    1R01   Ab50 2896   2.693   4.961   3.186 -0.3279  0.8193 -0.1604
    1R01   Ab51 2897   2.655   4.930   3.059 -0.4362 -0.3988  0.2961
    1R01   Ab52 2898   2.559   4.876   3.033  1.1070 -1.0183 -1.1345
    1R01   Ab53 2899   4.933   1.370   1.824  0.2011  0.0341 -0.1223
    1R01   Ab54 2900   4.903   1.263   1.811  0.1899 -0.7167  1.3516
    1R01   Ab55 2901   4.875   1.402   1.910 -0.2813 -0.5483 -2.6186
    1R01   Ab56 2902   5.037   1.382   1.845  1.2474  0.7126  0.8470
    1R01   Ab57 2903   4.885   1.452   1.705 -0.4010  0.8270 -0.2868
    1R01   Ab58 2904   4.729   1.445   1.699  0.2393  0.0166  0.4042
    1R01   Ab59 2905   4.707   1.342   1.658 -1.7702  0.0117 -0.1768
    1R01   Ab5a 2906   4.675   1.451   1.794 -2.0136  0.7475 -1.1597
    1R01   Ab5b 2907   4.689   1.514   1.627  1.0813  2.6898  1.5211
    1R01   Ab5c 2908   4.953   1.401   1.580  0.1807  0.3529 -0.0886
    1R01   Ab5d 2909   5.063   1.488   1.551 -0.6467  0.1969 -0.3927
    1R01   Ab5e 2910   5.154   1.459   1.444  0.0410  0.7090  0.0488
    1R01   Ab5f 2911   5.232   1.530   1.422 -3.3171  0.3539 -0.2685
    1R01   Ab60 2912   5.126   1.338   1.375 -1.3056 -0.7876  0.2078
    1R01   Ab61 2913   5.197   1.246   1.280  0.6819  0.5176  0.4720
    1R01   Ab62 2914   5.298   1.221   1.316  3.5599 -0.4720 -0.6207
    1R01   Ab63 2915   5.088   1.135   1.323 -0.2827 -0.1683 -0.2059
    1R01   Ab64 2916   5.126   1.069   1.398  0.8500 -3.8305 -1.6197
    1R01   Ab65 2917   5.043   1.066   1.192 -0.1946  0.5723 -0.1962
    1R01   Ab66 2918   4.956   0.997   1.194 -0.3377  0.2341 -0.0805
    1R01   Ab67 2919   5.181   1.000   1.154  0.3822 -0.0551  0.0798
    1R01   Ab68 2920   5.235   0.944   1.236  0.7654  1.0835  1.6150
    1R01   Ab69 2921   5.275   1.113   1.094  0.2553 -0.1788  0.5667
    1R01   Ab6a 2922   5.386   1.100   1.114  2.3559 -3.2242 -0.3109
    1R01   Ab6b 2923   5.199   1.249   1.121  0.1813  0.0970  0.3862
    1R01   Ab6c 2924   5.231   1.338   1.069 -0.2016 -0.1899  1.1921
    1R01   Ab6d 2925   5.047   1.204   1.100  0.0227 -0.1840  0.0320
    1R01   Ab6e 2926   5.021   1.199   0.997  1.6775 -0.7332  2.9430
    1R01   Ab6f 2927   4.980   1.278   1.136  3.1404 -0.9773  1.8107
    1R01   Ab70 2928   5.025   1.247   1.405 -0.5527  0.3480  0.3028
    1R01   Ab71 2929   4.934   1.277   1.507 -0.5109 -0.4887 -0.3445
    1R01   Ab72 2930   4.868   1.203   1.547 -1.5513  0.3950 -1.8169
    1R01   Ab73 2931   5.057   1.602   1.643  0.8922  0.2675 -0.8545
    1R01   Ab74 2932   4.942   1.596   1.723  0.6403  0.8314 -0.9850
    1R01   Ab75 2933   4.910   1.699   1.817  0.0366  0.3523 -0.3202
    1R01   Ab76 2934   4.812   1.700   1.867  0.7625 -1.3202  1.7856
    1R01   Ab77 2935   5.004   1.805   1.818  0.0758  1.0111  0.6816
    1R01   Ab78 2936   5.016   1.951   1.871 -0.8596  0.3506  0.8402
    1R01   Ab79 2937   4.951   2.013   1.810  0.4935  0.1141  3.2397
    1R01   Ab7a 2938   5.152   1.942   1.791  0.4130 -0.0337  0.4541
    1R01   Ab7b 2939   5.158   2.014   1.713 -0.4557 -0.9294  0.3768
    1R01   Ab7c 2940   5.263   1.966   1.896  0.1494 -0.3571  0.3139
    1R01   Ab7d 2941   5.362   1.982   1.853  1.6686  0.3551  0.4123
    1R01   Ab7e 2942   5.236   1.847   2.007 -0.3891 -0.3346 -0.0454
    1R01   Ab7f 2943   5.234   1.750   1.956  0.0606  0.3337  1.3917
    1R01   Ab80 2944   5.299   1.836   2.139 -0.1259  0.5123  0.6323
    1R01   Ab81 2945   5.184   1.871   2.203 -0.0101  0.5809  0.2755
    1R01   Ab82 2946   5.178   1.869   2.339 -0.1666 -0.6195 -0.4253
    1R01   Ab83 2947   5.045   1.886   2.395 -0.6192 -0.0155 -0.1795
    1R01   Ab84 2948   5.031   1.986   2.435  0.3694  0.0807 -1.6433
    1R01   Ab85 2949   4.968   1.870   2.316 -0.2147 -2.2481 -0.2698
    1R01   Ab86 2950   5.035   1.799   2.471  1.2576 -2.0727  0.9815
    1R01   Ab87 2951   5.298   1.829   2.406 -0.0084  0.7873  0.0748
    1R01   Ab88 2952   5.406   1.773   2.336  0.6366  1.1338  0.3218
    1R01   Ab89 2953   5.409   1.769   2.196  0.4379  0.3592 -0.1403
    1R01   Ab8a 2954   5.523   1.719   2.107 -0.4500 -0.7185  0.2736
    1R01   Ab8b 2955   5.607   1.788   2.098 -0.5019 -0.7357 -0.2274
    1R01   Ab8c 2956   5.563   1.635   2.167  1.6372 -2.3957  2.4897
    1R01   Ab8d 2957   5.500   1.686   2.007 -1.5593 -0.2270 -0.6143
    1R01   Ab8e 2958   5.105   1.879   2.082 -0.0058  0.6029  0.2188
    1R01   Ab8f 2959   5.027   1.804   2.098  3.4428 -0.6216 -0.1239
    1R01   Ab90 2960   5.050   2.005   2.009  0.2212  0.7680  0.7128
    1R01   Ab91 2961   4.975   2.061   2.053 -2.1788 -1.1176  0.0773
    1R01   Ab92 2962   5.187   2.084   1.969 -0.1737  0.1726 -0.4549
    1R01   Ab93 2963   5.241   2.117   2.063 -0.1721  1.4966 -0.5536
    1R01   Ab94 2964   5.172   2.170   1.901  1.8066 -0.1403  0.7199
    1R01   Ab95 2965   5.114   1.807   1.737 -0.7626  0.3885  0.1646
    1R01   Ab96 2966   5.152   1.703   1.654 -0.2916 -0.1428  0.4157
    1R01   Ab97 2967   5.246   1.707   1.603  0.2158 -0.7799  1.5768
    1R01   Ab98 2968  -2.680   1.935  -6.392 -0.4717  0.1167  0.6699
    1R01   Ab99 2969  -2.730   1.841  -6.377  2.9807  0.5579 -0.4191
    1R01   Ab9a 2970  -2.690   1.981  -6.287 -0.8455 -1.2147  1.6189
    1R01   Ab9b 2971  -2.573   1.918  -6.402  2.6874 -1.3163 -2.1328
    1R01   Ab9c 2972  -2.737   2.010  -6.520  0.4711 -0.5636 -0.5981
    1R01   Ab9d 2973  -2.642   2.135  -6.552  0.2452  1.1174  0.2031
    1R01   Ab9e 2974  -2.674   2.185  -6.640 -0.7538 -3.1207 -0.5994
    1R01   Ab9f 2975  -2.541   2.109  -6.555 -1.0650  1.6666  0.1107
    1R01   Aba0 2976  -2.647   2.215  -6.474 -1.1543  2.9444 -1.1016
    1R01   Aba1 2977  -2.881   2.048  -6.487 -0.2442  0.6981  0.2522
    1R01   Aba2 2978  -2.965   1.959  -6.560 -0.1934  0.3925  0.5391
    1R01   Aba3 2979  -3.105   1.953  -6.532  0.5384  0.0414 -0.8552
    1R01   Aba4 2980  -3.184   1.904  -6.592 -2.4177 -0.1260 -0.3064
    1R01   Aba5 2981  -3.147   2.050  -6.441  0.7237 -0.7698 -0.5320
    1R01   Aba6 2982  -3.270   2.129  -6.396 -0.3964  0.3204 -0.3578
    1R01   Aba7 2983  -3.325   2.076  -6.317 -1.7889  0.9763  2.3554
    1R01   Aba8 2984  -3.168   2.242  -6.356  0.0949 -0.3113 -0.6628
    1R01   Aba9 2985  -3.149   2.261  -6.251 -1.5301 -4.5613 -0.4126
    1R01   Abaa 2986  -3.209   2.369  -6.448  0.6265 -0.1397  0.5283
    1R01   Abab 2987  -3.127   2.439  -6.472  0.4653  1.4388 -0.5959
    1R01   Abac 2988  -3.333   2.416  -6.380  0.4034  0.1902 -0.9819
    1R01   Abad 2989  -3.354   2.507  -6.433  1.5513  1.9009  1.2555
    1R01   Abae 2990  -3.448   2.306  -6.400  0.4750 -0.6504 -0.5665
    1R01   Abaf 2991  -3.540   2.354  -6.448 -0.9210 -0.7252 -0.7638
    1R01   Abb0 2992  -3.379   2.199  -6.489  0.1537  0.1555 -0.8532
    1R01   Abb1 2993  -3.443   2.139  -6.554 -1.0461  1.3625 -0.3972
    1R01   Abb2 2994  -3.280   2.293  -6.570  0.0493  0.6279  0.5621
    1R01   Abb3 2995  -3.339   2.358  -6.636  4.0292  0.5557  0.5767
    1R01   Abb4 2996  -3.216   2.233  -6.641  1.2088 -1.6819 -2.4532
    1R01   Abb5 2997  -3.061   2.145  -6.387 -1.2169 -0.2762 -0.0604
    1R01   Abb6 2998  -2.923   2.150  -6.404 -0.2297 -0.0396 -0.0105
    1R01   Abb7 2999  -2.855   2.231  -6.360  3.0120  2.5786  0.3360
    1R01   Abb8 3000  -2.882   1.879  -6.648  0.7012  0.2769  1.2983
    1R01   Abb9 3001  -2.745   1.915  -6.635 -0.3086 -0.0406  0.4963
    1R01   Abba 3002  -2.640   1.854  -6.712 -0.2359  0.8301  0.0665
    1R01   Abbb 3003  -2.534   1.872  -6.698  0.7917  0.0458 -1.4908
    1R01   Abbc 3004  -2.688   1.748  -6.786  0.1292 -1.0111  1.0645
    1R01   Abbd 3005  -2.634   1.641  -6.870 -0.5387 -0.4517  0.3631
    1R01   Abbe 3006  -2.580   1.679  -6.959 -1.8211 -1.8970  1.1610
    1R01   Abbf 3007  -2.785   1.602  -6.900 -0.6159  0.1204  0.3866
    1R01   Abc0 3008  -2.822   1.637  -7.002 -2.6640 -1.9979  1.4198
    1R01   Abc1 3009  -2.790   1.446  -6.889  0.0990 -0.1134 -0.5461
    1R01   Abc2 3010  -2.870   1.392  -6.931 -0.2188 -1.7040 -0.2102
    1R01   Abc3 3011  -2.774   1.414  -6.740 -0.2825 -0.5802  0.1377
    1R01   Abc4 3012  -2.790   1.307  -6.733  1.1158 -0.1182 -0.3001
    1R01   Abc5 3013  -2.819   1.490  -6.622 -0.2463 -0.6815  0.1921
    1R01   Abc6 3014  -2.692   1.539  -6.595  0.8480 -0.8802  0.3342
    1R01   Abc7 3015  -2.643   1.569  -6.463  0.7726  0.5436  0.6682
    1R01   Abc8 3016  -2.491   1.566  -6.431  0.8251  0.2724  0.7331
    1R01   Abc9 3017  -2.444   1.641  -6.497 -0.1577  1.1943 -2.0390
    1R01   Abca 3018  -2.464   1.466  -6.450 -4.9720 -0.3671 -1.4136
    1R01   Abcb 3019  -2.464   1.594  -6.328 -1.2695 -0.9737  0.7798
    1R01   Abcc 3020  -2.745   1.560  -6.364  0.0993 -0.3620 -0.1784
    1R01   Abcd 3021  -2.873   1.505  -6.390  0.1092 -0.0593 -0.3116
    1R01   Abce 3022  -2.914   1.470  -6.522 -0.2453  0.0261 -1.0751
    1R01   Abcf 3023  -3.016   1.366  -6.544  0.2004  0.5580 -0.4286
    1R01   Abd0 3024  -3.094   1.401  -6.618  0.1480  0.0879  0.4100
    1R01   Abd1 3025  -3.080   1.335  -6.459  2.3504  0.8992 -0.3041
    1R01   Abd2 3026  -2.977   1.272  -6.584  0.4711 -0.6466 -0.3453
    1R01   Abd3 3027  -2.630   1.456  -6.705 -0.3837 -0.2379 -0.0546
    1R01   Abd4 3028  -2.560   1.382  -6.661  1.0318 -0.3043 -0.4305
    1R01   Abd5 3029  -2.563   1.508  -6.835 -0.4651  0.7278 -0.7514
    1R01   Abd6 3030  -2.456   1.502  -6.853 -1.1227 -0.5038 -1.9497
    1R01   Abd7 3031  -2.644   1.420  -6.937 -0.7521 -0.2301 -0.6454
    1R01   Abd8 3032  -2.608   1.317  -6.932  1.3299  1.4866 -2.6417
    1R01   Abd9 3033  -2.614   1.456  -7.040 -0.1226  1.3620 -0.2408
    1R01   Abda 3034  -2.819   1.719  -6.805 -0.9790 -0.8016  1.0412
    1R01   Abdb 3035  -2.922   1.779  -6.734  0.5605  0.7806  0.2898
    1R01   Abdc 3036  -3.025   1.743  -6.744  2.3457  2.1403  1.3475
    1R01   Abdd 3037  -0.290   1.337  -5.810 -0.2459 -0.3178  0.0175
    1R01   Abde 3038  -0.369   1.418  -5.797 -3.4825 -0.5774  1.6800
    1R01   Abdf 3039  -0.318   1.275  -5.905 -0.1277 -1.3507  0.7579
    1R01   Abe0 3040  -0.200   1.389  -5.828  0.6676 -0.9220  0.1550
    1R01   Abe1 3041  -0.280   1.254  -5.676 -0.0899 -0.0685 -0.2040
    1R01   Abe2 3042  -0.242   1.354  -5.566  0.0011  0.5074 -0.1822
    1R01   Abe3 3043  -0.224   1.308  -5.472 -3.9937  2.6603 -0.3038
    1R01   Abe4 3044  -0.319   1.435  -5.540 -0.1620  1.2462 -0.5922
    1R01   Abe5 3045  -0.155   1.413  -5.593 -0.3485 -0.5561 -0.2342
    1R01   Abe6 3046  -0.176   1.137  -5.691  0.0997  0.9275  0.3166
    1R01   Abe7 3047  -0.253   1.017  -5.707 -0.3383  0.6661 -0.2555
    1R01   Abe8 3048  -0.192   0.892  -5.674  0.0497  0.2304 -0.5238
    1R01   Abe9 3049  -0.244   0.799  -5.654  1.8081  0.3524  2.8630
    1R01   Abea 3050  -0.054   0.894  -5.644  0.0764  0.1560 -1.2722
    1R01   Abeb 3051  -0.019   0.842  -5.506  0.2162 -0.1184 -0.5896
    1R01   Abec 3052   0.032   0.743  -5.505  1.2388 -2.0302 -2.6699
    1R01   Abed 3053   0.086   0.959  -5.498  0.2588  0.6836  0.4058
    1R01   Abee 3054   0.189   0.929  -5.504 -1.5740  0.4005  1.7714
    1R01   Abef 3055   0.064   1.026  -5.358  0.0059  0.1554 -0.3659
    1R01   Abf0 3056   0.100   1.124  -5.334 -0.8798  2.5991  1.0032
    1R01   Abf1 3057   0.085   0.908  -5.251  0.2762 -0.4209 -0.4730
    1R01   Abf2 3058   0.087   0.954  -5.153 -4.2061 -1.8977 -1.9866
    1R01   Abf3 3059  -0.034   0.816  -5.266  0.3079  0.1682  0.8306
    1R01   Abf4 3060  -0.094   0.794  -5.180  1.1957 -1.8935  1.6815
    1R01   Abf5 3061  -0.120   0.862  -5.383  0.2183  0.5109 -0.8871
    1R01   Abf6 3062  -0.220   0.825  -5.392  0.8053 -0.8854 -0.6415
    1R01   Abf7 3063  -0.095   1.023  -5.366 -0.1767 -0.1107 -0.4714
    1R01   Abf8 3064  -0.140   1.061  -5.278 -1.5586 -1.2088 -2.1900
    1R01   Abf9 3065  -0.148   1.083  -5.443 -2.3708 -0.5132 -1.8475
    1R01   Abfa 3066   0.021   1.011  -5.620 -0.1421  0.4681 -0.1567
    1R01   Abfb 3067  -0.037   1.138  -5.647  0.2638  0.7979 -0.7016
    1R01   Abfc 3068   0.016   1.222  -5.596  2.5252 -1.0743  0.6165
    1R01   Abfd 3069  -0.393   1.046  -5.698 -0.3381 -0.4427  0.1410
    1R01   Abfe 3070  -0.416   1.183  -5.650  0.6283 -0.2189  1.1905
    1R01   Abff 3071  -0.511   1.215  -5.552 -0.1680 -0.3283 -0.0747
    1R01   Ac00 3072  -0.511   1.307  -5.491 -0.4684 -1.1653  2.2241
    1R01   Ac01 3073  -0.603   1.107  -5.526 -0.3833  0.0071 -0.4950
    1R01   Ac02 3074  -0.665   1.054  -5.390  0.3293  0.4243  0.1540
    1R01   Ac03 3075  -0.593   1.076  -5.308  0.6549 -1.1493  0.5356
    1R01   Ac04 3076  -0.644   0.913  -5.446 -0.4022 -0.6804 -0.0976
    1R01   Ac05 3077  -0.569   0.856  -5.406  0.0927  1.6931 -1.6216
    1R01   Ac06 3078  -0.776   0.828  -5.428 -0.7610  0.1592  0.5275
    1R01   Ac07 3079  -0.752   0.719  -5.441 -3.1492 -1.4167 -1.3173
    1R01   Ac08 3080  -0.880   0.905  -5.515 -0.3617  0.9334  0.3538
    1R01   Ac09 3081  -0.967   0.841  -5.527  2.2890 -0.1232 -0.6705
    1R01   Ac0a 3082  -0.874   0.987  -5.641 -0.7471 -0.1347  0.3063
    1R01   Ac0b 3083  -0.900   1.107  -5.575 -0.0431 -0.2733 -0.4823
    1R01   Ac0c 3084  -0.973   1.212  -5.634 -0.1809 -0.5062 -0.2673
    1R01   Ac0d 3085  -1.045   1.330  -5.562  0.1465  0.0056  0.3785
    1R01   Ac0e 3086  -0.983   1.420  -5.574  0.3302  0.5811  0.2449
    1R01   Ac0f 3087  -1.139   1.353  -5.609 -0.8122  0.5990 -1.1713
    1R01   Ac10 3088  -1.055   1.318  -5.453 -1.5813 -1.4275 -1.4758
    1R01   Ac11 3089  -1.004   1.192  -5.770 -0.3579 -0.0259 -0.3275
    1R01   Ac12 3090  -0.969   1.079  -5.841  0.5336 -0.0165  0.4939
    1R01   Ac13 3091  -0.917   0.964  -5.775 -0.2280 -0.5387  0.4399
    1R01   Ac14 3092  -0.892   0.826  -5.833 -0.3465 -0.3927  0.0614
    1R01   Ac15 3093  -0.829   0.825  -5.926  1.4201  0.9928  1.0288
    1R01   Ac16 3094  -0.850   0.757  -5.764 -1.1551  0.4490  2.6699
    1R01   Ac17 3095  -0.984   0.785  -5.866  3.0061 -1.0539 -2.2166
    1R01   Ac18 3096  -0.911   1.045  -5.440 -0.3436 -0.4238  0.5194
    1R01   Ac19 3097  -1.016   1.055  -5.412  1.1505 -0.6423  2.8572
    1R01   Ac1a 3098  -0.809   1.051  -5.324  0.9234  0.1019  0.7620
    1R01   Ac1b 3099  -0.831   1.125  -5.249  0.3062  1.9944 -1.5876
    1R01   Ac1c 3100  -0.805   0.890  -5.282 -0.6373 -0.6408  0.2281
    1R01   Ac1d 3101  -0.898   0.867  -5.229 -0.6525 -0.7288 -1.6883
    1R01   Ac1e 3102  -0.721   0.880  -5.212 -0.2221  1.7159 -1.1917
    1R01   Ac1f 3103  -0.592   0.981  -5.577 -0.7766  0.0859  1.3009
    1R01   Ac20 3104  -0.488   0.948  -5.661 -0.8405 -0.1788 -0.3819
    1R01   Ac21 3105  -0.464   0.845  -5.668 -1.6415 -1.4306  0.4399
    1R01   Ac22 3106   0.100   1.538  -5.356  0.3797 -0.9760  1.0867
    1R01   Ac23 3107   0.089   1.598  -5.264 -0.1663 -1.2273  0.2352
    1R01   Ac24 3108   0.015   1.565  -5.424  2.1277 -0.0821 -1.2163
    1R01   Ac25 3109   0.092   1.429  -5.340 -2.0091  0.9485  1.3086
    1R01   Ac26 3110   0.237   1.569  -5.413  0.0385 -0.1349  0.6413
    1R01   Ac27 3111   0.259   1.499  -5.542 -0.2401  0.3240  0.3925
    1R01   Ac28 3112   0.180   1.530  -5.611  1.0829  0.7598  1.0855
    1R01   Ac29 3113   0.259   1.390  -5.524 -0.5043  0.7843  1.8004
    1R01   Ac2a 3114   0.355   1.536  -5.580  1.3094 -2.3138  0.2544
    1R01   Ac2b 3115   0.355   1.520  -5.318  0.4787  0.3472  0.3367
    1R01   Ac2c 3116   0.454   1.621  -5.308 -0.6960  0.0254  0.1579
    1R01   Ac2d 3117   0.563   1.611  -5.216  0.1333 -0.5744 -0.3470
    1R01   Ac2e 3118   0.631   1.690  -5.203 -0.8694 -1.2963  0.6435
    1R01   Ac2f 3119   0.569   1.498  -5.142  0.6187 -0.0970  0.4714
    1R01   Ac30 3120   0.623   1.468  -5.011  0.0524  0.0174  0.5660
    1R01   Ac31 3121   0.620   1.561  -4.952  0.7703  1.0817 -0.8881
    1R01   Ac32 3122   0.499   1.373  -5.000  0.2828 -0.0122 -0.4875
    1R01   Ac33 3123   0.419   1.413  -4.951  2.8084  1.7384 -0.0419
    1R01   Ac34 3124   0.548   1.236  -4.941 -0.3068 -0.0268  0.2614
    1R01   Ac35 3125   0.490   1.147  -4.955  1.8504 -0.5956  0.3620
    1R01   Ac36 3126   0.589   1.281  -4.795 -0.0708  0.1586 -0.2587
    1R01   Ac37 3127   0.500   1.323  -4.752 -0.6571 -0.2488 -0.9510
    1R01   Ac38 3128   0.714   1.371  -4.818 -0.0068  0.3574  0.8503
    1R01   Ac39 3129   0.696   1.465  -4.772  0.5182 -0.6853 -0.4472
    1R01   Ac3a 3130   0.742   1.387  -4.969  0.2205  0.0476 -0.3189
    1R01   Ac3b 3131   0.842   1.408  -5.004  0.6814  0.0266  2.1734
    1R01   Ac3c 3132   0.695   1.241  -5.009 -0.3661  0.4407 -0.3212
    1R01   Ac3d 3133   0.696   1.246  -5.122 -0.4322 -0.8754 -1.0435
    1R01   Ac3e 3134   0.769   1.174  -4.967  1.6057 -0.3269 -0.9417
    1R01   Ac3f 3135   0.472   1.405  -5.140 -0.4416  0.1812 -0.4733
    1R01   Ac40 3136   0.354   1.428  -5.214 -0.7640  0.5578  0.1244
    1R01   Ac41 3137   0.267   1.368  -5.194 -0.9606  0.3426  1.0698
    1R01   Ac42 3138   0.395   1.747  -5.371  0.6778 -0.2788  0.0848
    1R01   Ac43 3139   0.270   1.718  -5.429  0.6450  0.4167  0.1683
    1R01   Ac44 3140   0.173   1.822  -5.468  0.0297  0.2392  0.4770
    1R01   Ac45 3141   0.075   1.796  -5.496  0.6298 -2.4294 -3.7091
    1R01   Ac46 3142   0.216   1.953  -5.447 -0.0419 -0.1796  0.2715
    1R01   Ac47 3143   0.167   2.096  -5.448  0.1442  0.0291  0.1895
    1R01   Ac48 3144   0.160   2.127  -5.557 -1.3094 -0.1030 -3.2036
    1R01   Ac49 3145   0.311   2.123  -5.377 -0.1097  0.5346  0.3810
    1R01   Ac4a 3146   0.389   2.172  -5.441  2.5240  0.4214 -1.9553
    1R01   Ac4b 3147   0.288   2.204  -5.244 -0.3037  1.1164  0.0348
    1R01   Ac4c 3148   0.369   2.247  -5.186 -0.5686  0.9578  0.6495
    1R01   Ac4d 3149   0.189   2.105  -5.164 -0.1469  0.0883 -0.7292
    1R01   Ac4e 3150   0.195   2.151  -5.062 -1.4650 -1.7405  1.4076
    1R01   Ac4f 3151   0.174   1.954  -5.144  0.0405  0.5092 -0.0692
    1R01   Ac50 3152   0.046   1.948  -5.200  0.0789 -0.6376  0.3467
    1R01   Ac51 3153  -0.057   1.871  -5.142  0.1748  0.1659  0.2808
    1R01   Ac52 3154  -0.204   1.897  -5.163  0.5053 -0.2541  0.0993
    1R01   Ac53 3155  -0.257   1.831  -5.237 -1.0744  1.7101  1.0760
    1R01   Ac54 3156  -0.252   1.899  -5.062 -0.9743 -2.5534  1.9410
    1R01   Ac55 3157  -0.234   1.988  -5.218  1.5853  0.2343 -0.2904
    1R01   Ac56 3158  -0.010   1.776  -5.050  0.9005  0.5886  0.0727
    1R01   Ac57 3159   0.120   1.765  -5.005  0.2517  0.9206 -0.6399
    1R01   Ac58 3160   0.215   1.859  -5.041 -0.8319  0.8557  0.0269
    1R01   Ac59 3161   0.332   1.881  -4.950  0.8039 -0.2260  0.2215
    1R01   Ac5a 3162   0.317   1.959  -4.877  2.1198 -0.1401 -0.1065
    1R01   Ac5b 3163   0.368   1.784  -4.891 -0.6703 -1.5444 -0.3787
    1R01   Ac5c 3164   0.417   1.899  -5.013  1.4237 -1.1222 -0.1698
    1R01   Ac5d 3165   0.046   2.100  -5.225 -0.3478  0.0211  0.7009
    1R01   Ac5e 3166  -0.029   2.156  -5.162 -0.2240 -0.7229 -1.4561
    1R01   Ac5f 3167   0.065   2.178  -5.355  0.0688 -0.0483 -0.0418
    1R01   Ac60 3168  -0.026   2.219  -5.397 -1.8132 -0.8041  1.0029
    1R01   Ac61 3169   0.170   2.297  -5.311  0.3259 -0.3948  0.1663
    1R01   Ac62 3170   0.131   2.382  -5.249 -1.1330  1.0387 -1.6385
    1R01   Ac63 3171   0.212   2.348  -5.399  2.0499  0.8394  0.7146
    1R01   Ac64 3172   0.334   1.978  -5.390 -0.4845 -0.1547  0.7424
    1R01   Ac65 3173   0.431   1.885  -5.351  0.1797  0.2689 -0.1863
    1R01   Ac66 3174   0.506   1.912  -5.285 -3.2578 -0.5243  0.7369
    1R01   Ac67 3175   4.936   1.256   0.575 -0.1743 -0.0437  0.3246
    1R01   Ac68 3176   4.965   1.324   0.497 -2.3896 -0.3178 -0.9373
    1R01   Ac69 3177   5.005   1.246   0.650  1.2320 -0.0733 -3.7129
    1R01   Ac6a 3178   4.859   1.315   0.620  2.3032  2.1477  0.5189
    1R01   Ac6b 3179   4.874   1.125   0.522 -0.0441 -0.4600  0.2068
    1R01   Ac6c 3180   4.857   1.141   0.367 -0.0774  0.1692  0.1079
    1R01   Ac6d 3181   4.779   1.223   0.352  0.1625  1.4495 -0.4655
    1R01   Ac6e 3182   4.945   1.148   0.309 -0.1818  3.6472 -0.8682
    1R01   Ac6f 3183   4.808   1.053   0.332  3.6257 -0.6483 -1.5853
    1R01   Ac70 3184   4.743   1.097   0.592  0.1604  0.1922  0.2413
    1R01   Ac71 3185   4.766   0.977   0.665 -0.7728  0.4892  0.1220
    1R01   Ac72 3186   4.688   0.941   0.776  0.5236 -0.3264  0.1849
    1R01   Ac73 3187   4.728   0.879   0.860 -1.1170  0.1571  0.5795
    1R01   Ac74 3188   4.564   1.006   0.790  0.0203 -0.6861  0.6427
    1R01   Ac75 3189   4.524   1.079   0.920 -0.2972 -0.2088  0.5622
    1R01   Ac76 3190   4.614   1.122   0.968 -0.9966  0.7037  2.5485
    1R01   Ac77 3191   4.459   1.190   0.820  0.1222  0.1822  0.2399
    1R01   Ac78 3192   4.507   1.287   0.827 -0.0026 -3.3005  0.2771
    1R01   Ac79 3193   4.303   1.188   0.847  0.0295  0.4578 -0.3993
    1R01   Ac7a 3194   4.234   1.223   0.769 -1.7254 -0.4506 -1.2058
    1R01   Ac7b 3195   4.291   1.247   0.992 -0.6207  0.1832  1.0516
    1R01   Ac7c 3196   4.193   1.236   1.027 -2.8730 -1.0245  3.0046
    1R01   Ac7d 3197   4.385   1.159   1.088 -0.0290  0.2898 -0.9203
    1R01   Ac7e 3198   4.328   1.133   1.179 -1.2538  0.7328  1.0684
    1R01   Ac7f 3199   4.412   1.033   1.012 -0.8591  0.1899  0.1101
    1R01   Ac80 3200   4.431   0.944   1.069 -3.5010 -0.7883  0.2456
    1R01   Ac81 3201   4.297   1.037   0.898 -0.4854  0.4406 -0.4266
    1R01   Ac82 3202   4.207   1.017   0.953 -0.8959 -1.0141 -0.9149
    1R01   Ac83 3203   4.309   0.958   0.815 -2.6564  0.5327 -2.0326
    1R01   Ac84 3204   4.529   1.117   0.710  0.4358 -0.6262  0.1249
    1R01   Ac85 3205   4.621   1.168   0.609  0.1681  0.3063  0.0837
    1R01   Ac86 3206   4.607   1.269   0.562  1.6683  3.0399  1.2692
    1R01   Ac87 3207   4.905   0.924   0.646 -0.7793  0.2004 -1.1200
    1R01   Ac88 3208   4.976   1.008   0.559 -0.3915 -0.0352 -0.2780
    1R01   Ac89 3209   5.113   0.983   0.517  0.8194 -0.1623  0.5221
    1R01   Ac8a 3210   5.159   1.041   0.439 -1.3780 -0.4816  4.5205
    1R01   Ac8b 3211   5.160   0.859   0.566  0.9663 -0.3827 -0.0423
    1R01   Ac8c 3212   5.261   0.760   0.517 -0.9810 -0.5349  0.1516
    1R01   Ac8d 3213   5.262   0.753   0.411 -1.3615  1.1799 -0.0739
    1R01   Ac8e 3214   5.178   0.658   0.601  1.2882 -0.0608 -0.8909
    1R01   Ac8f 3215   5.112   0.594   0.552 -2.1349 -0.7378  3.0204
    1R01   Ac90 3216   5.282   0.578   0.683  1.0121  0.6412  0.1952
    1R01   Ac91 3217   5.248   0.487   0.731 -1.0987  2.2850 -1.2380
    1R01   Ac92 3218   5.346   0.668   0.791 -0.0725  0.6001  0.0691
    1R01   Ac93 3219   5.412   0.613   0.864  1.6915  0.9759 -0.4269
    1R01   Ac94 3220   5.269   0.777   0.861 -0.2430 -0.1323  0.0307
    1R01   Ac95 3221   5.344   0.875   0.802 -0.7678 -0.2247  0.6324
    1R01   Ac96 3222   5.353   1.011   0.848 -0.1489  0.2471  0.5851
    1R01   Ac97 3223   5.432   1.121   0.777 -0.3451 -0.3537  0.2230
    1R01   Ac98 3224   5.504   1.185   0.843  1.1835 -1.4016  0.1420
    1R01   Ac99 3225   5.491   1.090   0.688 -1.4514 -0.5351 -0.1404
    1R01   Ac9a 3226   5.360   1.188   0.725  1.0493  1.2796  1.2263
    1R01   Ac9b 3227   5.274   1.032   0.965  0.8738  0.0582  0.1696
    1R01   Ac9c 3228   5.205   0.931   1.027 -0.2637  0.0261 -0.4306
    1R01   Ac9d 3229   5.202   0.795   0.986  0.2521 -0.4806 -0.8952
    1R01   Ac9e 3230   5.146   0.679   1.064 -0.1935 -0.2789 -0.2506
    1R01   Ac9f 3231   5.166   0.583   1.006  1.5878 -0.3687 -1.4323
    1R01   Aca0 3232   5.038   0.697   1.081 -0.5813 -0.5850 -0.1670
    1R01   Aca1 3233   5.196   0.673   1.164 -0.9727 -0.9349  2.0865
    1R01   Aca2 3234   5.423   0.779   0.719  0.1085 -0.0223  0.2172
    1R01   Aca3 3235   5.524   0.778   0.748 -3.6753 -0.6482 -0.2556
    1R01   Aca4 3236   5.419   0.736   0.568 -0.2658  0.0014 -0.5806
    1R01   Aca5 3237   5.504   0.764   0.505 -1.9615  0.9241 -1.7014
    1R01   Aca6 3238   5.414   0.578   0.592  0.6168 -0.8759  0.6641
    1R01   Aca7 3239   5.505   0.532   0.634 -0.4841  1.6300 -1.2429
    1R01   Aca8 3240   5.394   0.530   0.492  3.5265  0.5401 -0.6058
    1R01   Aca9 3241   5.095   0.778   0.644  0.3982  0.0977  0.6640
    1R01   Acaa 3242   4.965   0.799   0.692 -0.2886  0.0409  0.0145
    1R01   Acab 3243   4.907   0.717   0.734  0.6169 -1.6537  0.6271
    1R01   Acac 3244   3.851   0.750   2.119  1.5282 -0.1167  0.9834
    1R01   Acad 3245   3.858   0.856   2.150  2.6182 -1.4293  0.6834
    1R01   Acae 3246   3.810   0.699   2.204 -0.5598 -0.5756 -0.2777
    1R01   Acaf 3247   3.773   0.730   2.044 -0.3545 -2.0302  2.9523
    1R01   Acb0 3248   3.982   0.684   2.079  0.5882 -0.0190  0.3557
    1R01   Acb1 3249   3.959   0.538   2.032 -0.2652 -0.0450  0.2410
    1R01   Acb2 3250   3.889   0.487   2.099  1.1713 -1.1615  1.3484
    1R01   Acb3 3251   4.055   0.489   2.025  0.9531  1.0073 -1.3247
    1R01   Acb4 3252   3.901   0.541   1.940 -1.5779 -0.7275 -0.0084
    1R01   Acb5 3253   4.078   0.684   2.197 -0.0774 -0.3579 -0.3155
    1R01   Acb6 3254   4.196   0.759   2.157 -0.1490  0.5568 -0.0594
    1R01   Acb7 3255   4.302   0.782   2.246 -0.4286  0.7818 -0.8104
    1R01   Acb8 3256   4.391   0.818   2.224 -0.0776  1.0820 -1.9941
    1R01   Acb9 3257   4.290   0.713   2.370  0.2127  0.2105  1.0316
    1R01   Acba 3258   4.379   0.663   2.486 -0.0164  0.1194 -0.2062
    1R01   Acbb 3259   4.403   0.744   2.559  2.7476 -1.0630  2.9981
    1R01   Acbc 3260   4.251   0.573   2.527  0.1849  0.3362 -0.2548
    1R01   Acbd 3261   4.194   0.609   2.614 -0.8460  1.2512 -0.6381
    1R01   Acbe 3262   4.292   0.437   2.524  0.6946  0.3368 -0.7643
    1R01   Acbf 3263   4.223   0.357   2.500 -0.9639 -2.2750  4.2644
    1R01   Acc0 3264   4.377   0.430   2.651 -0.4966 -0.1585  0.1132
    1R01   Acc1 3265   4.318   0.448   2.738  0.7844  0.4660  0.6246
    1R01   Acc2 3266   4.512   0.509   2.631  0.2078  0.2748 -0.4637
    1R01   Acc3 3267   4.533   0.592   2.703  0.4431  2.2878  2.2262
    1R01   Acc4 3268   4.494   0.557   2.485  0.0626 -0.3857  0.5641
    1R01   Acc5 3269   4.589   0.585   2.424  0.6436 -1.6101  0.0323
    1R01   Acc6 3270   4.409   0.444   2.423 -1.3537  0.2946 -0.2083
    1R01   Acc7 3271   4.384   0.467   2.318  1.0273 -1.9140  0.1994
    1R01   Acc8 3272   4.462   0.351   2.419 -1.2807  1.8716  2.0759
    1R01   Acc9 3273   4.187   0.632   2.398  0.3393 -0.4332  0.3575
    1R01   Acca 3274   4.078   0.606   2.314  0.1150 -1.6374 -0.0851
    1R01   Accb 3275   3.998   0.532   2.339  1.7280 -0.8657  1.7224
    1R01   Accc 3276   4.175   0.820   2.032  0.0370 -0.3700  0.2865
    1R01   Accd 3277   4.043   0.787   1.980  0.2276 -0.0498  0.7665
    1R01   Acce 3278   3.995   0.832   1.854 -0.1567 -0.1889 -0.0950
    1R01   Accf 3279   3.896   0.800   1.819 -0.5605 -0.5621 -1.6900
    1R01   Acd0 3280   4.094   0.912   1.784 -0.3965  0.2220  0.0388
    1R01   Acd1 3281   4.127   0.962   1.642  0.3338 -0.0546 -0.7289
    1R01   Acd2 3282   4.051   1.040   1.623 -0.6043  0.3691 -4.0832
    1R01   Acd3 3283   4.266   1.001   1.699  0.0515 -0.6907  0.3173
    1R01   Acd4 3284   4.287   1.106   1.727  0.4092  0.8800 -3.3515
    1R01   Acd5 3285   4.371   0.941   1.607 -0.4653 -0.1646  0.2862
    1R01   Acd6 3286   4.477   0.936   1.634 -0.2083  0.8319 -0.3148
    1R01   Acd7 3287   4.343   1.013   1.470 -0.8150 -1.0059  0.2523
    1R01   Acd8 3288   4.430   0.995   1.401  1.1317 -1.0979 -1.4084
    1R01   Acd9 3289   4.286   1.153   1.448 -0.1512  0.0632 -0.7501
    1R01   Acda 3290   4.172   1.103   1.390 -0.2500 -0.2705  0.0075
    1R01   Acdb 3291   4.090   1.176   1.307  0.7591  0.1521 -0.3464
    1R01   Acdc 3292   3.970   1.124   1.220  0.0355  1.0252  0.0542
    1R01   Acdd 3293   3.986   1.009   1.201  0.2129 -2.5400  4.1609
    1R01   Acde 3294   3.973   1.177   1.128 -0.6793 -0.0337  1.5100
    1R01   Acdf 3295   3.871   1.134   1.265 -0.0252  1.4563 -0.3572
    1R01   Ace0 3296   4.127   1.317   1.305 -0.6328 -0.1172 -0.1997
    1R01   Ace1 3297   4.236   1.362   1.374  0.0955 -0.3789  0.4968
    1R01   Ace2 3298   4.328   1.290   1.451  0.3603  0.1917  0.0158
    1R01   Ace3 3299   4.472   1.325   1.493  0.1700 -0.0529  0.3422
    1R01   Ace4 3300   4.517   1.417   1.447  4.5625  2.1923  0.4364
    1R01   Ace5 3301   4.467   1.342   1.603 -1.9440 -2.1029  2.7131
    1R01   Ace6 3302   4.534   1.243   1.460 -0.2234 -1.7133  1.2456
    1R01   Ace7 3303   4.206   0.960   1.411 -0.3826 -0.3679  0.6024
    1R01   Ace8 3304   4.221   0.911   1.311  2.9147 -0.5186 -0.1855
    1R01   Ace9 3305   4.150   0.862   1.522  0.4954 -0.0863 -0.1739
    1R01   Acea 3306   4.076   0.790   1.497 -0.1354 -0.0745 -1.2522
    1R01   Aceb 3307   4.300   0.800   1.572  1.1280 -0.6633 -0.7262
    1R01   Acec 3308   4.296   0.741   1.660 -1.5580 -1.1970 -0.2453
    1R01   Aced 3309   4.342   0.747   1.489 -0.8031 -0.7061 -1.2414
    1R01   Acee 3310   4.223   0.939   1.832 -0.7742  0.4828 -0.5579
    1R01   Acef 3311   4.269   0.889   1.950  0.0914  0.2193  1.0051
    1R01   Acf0 3312   4.362   0.918   1.982  0.8082 -3.0607 -1.6564
    1R01   Acf1 3313  -0.340   0.958  -5.059 -0.8041  0.4732  0.4302
    1R01   Acf2 3314  -0.295   0.931  -5.154 -1.5309 -0.5356  0.9601
    1R01   Acf3 3315  -0.415   0.879  -5.022  0.0246  0.3230  0.5561
    1R01   Acf4 3316  -0.406   1.043  -5.086  0.6192 -0.6080 -3.5248
    1R01   Acf5 3317  -0.227   0.993  -4.959 -0.1270  0.5887 -0.4376
    1R01   Acf6 3318  -0.286   0.999  -4.812 -0.2186 -0.5833  0.5187
    1R01   Acf7 3319  -0.209   0.997  -4.731 -1.4925 -0.4887 -0.6145
    1R01   Acf8 3320  -0.366   0.928  -4.801 -0.2550  3.3319  1.8321
    1R01   Acf9 3321  -0.335   1.089  -4.782  0.7094 -2.2310 -0.6310
    1R01   Acfa 3322  -0.144   1.120  -4.997 -0.1917  0.3959 -0.2006
    1R01   Acfb 3323  -0.014   1.101  -4.950  0.2462 -0.2999  0.2180
    1R01   Acfc 3324   0.085   1.206  -4.946 -0.4290  0.9278  0.0243
    1R01   Acfd 3325   0.181   1.193  -4.902 -2.3588  1.2362  1.2275
    1R01   Acfe 3326   0.036   1.326  -4.993 -0.1821 -0.3263  0.1987
    1R01   Acff 3327   0.069   1.476  -4.979  0.3469  0.2089  0.3695
    1R01   Ad00 3328   0.123   1.522  -5.063  3.7291  1.2404  0.8091
    1R01   Ad01 3329  -0.092   1.497  -5.008  0.2868 -0.1194  0.0827
    1R01   Ad02 3330  -0.111   1.527  -5.111 -0.0402  0.1664 -2.5110
    1R01   Ad03 3331  -0.147   1.583  -4.888  0.3075 -0.0742  0.5365
    1R01   Ad04 3332  -0.254   1.579  -4.858  0.0564 -1.6658 -0.5780
    1R01   Ad05 3333  -0.074   1.717  -4.922 -0.2342 -0.1877  0.3552
    1R01   Ad06 3334  -0.124   1.804  -4.878  1.2648  1.2083 -0.2169
    1R01   Ad07 3335   0.078   1.694  -4.874 -0.7263  0.0203  0.4001
    1R01   Ad08 3336   0.121   1.748  -4.788  0.0347  0.6150 -0.0401
    1R01   Ad09 3337   0.094   1.545  -4.839 -1.0478 -0.1916  0.2532
    1R01   Ad0a 3338   0.179   1.503  -4.782  0.2694  0.8346 -0.1308
    1R01   Ad0b 3339  -0.049   1.525  -4.777  0.1463  0.5493  0.0057
    1R01   Ad0c 3340  -0.059   1.579  -4.681 -0.4162 -0.7285  0.9214
    1R01   Ad0d 3341  -0.069   1.420  -4.755  1.2963  0.0272  1.8177
    1R01   Ad0e 3342  -0.103   1.346  -5.010 -0.2869 -0.3486  0.4582
    1R01   Ad0f 3343  -0.198   1.247  -5.024 -0.5631  0.8163  0.1677
    1R01   Ad10 3344  -0.302   1.266  -5.043  0.8920  1.0164 -2.7421
    1R01   Ad11 3345   0.008   0.961  -4.922  0.2062 -0.6734  1.1505
    1R01   Ad12 3346  -0.110   0.886  -4.943  0.1819  0.2977  0.8912
    1R01   Ad13 3347  -0.115   0.745  -4.929  0.4160 -0.6549  0.1715
    1R01   Ad14 3348  -0.205   0.687  -4.944 -1.4462  0.3561 -0.3528
    1R01   Ad15 3349   0.007   0.685  -4.892  0.0968 -0.8014  0.0485
    1R01   Ad16 3350   0.054   0.563  -4.815  0.2340 -0.2057  0.5487
    1R01   Ad17 3351  -0.015   0.558  -4.731 -0.4793  2.3995  0.7659
    1R01   Ad18 3352   0.179   0.646  -4.782 -0.3665  0.8400 -0.0468
    1R01   Ad19 3353   0.177   0.672  -4.675  2.1987 -0.8846  1.8889
    1R01   Ad1a 3354   0.298   0.548  -4.821  0.4218 -0.1581 -0.9042
    1R01   Ad1b 3355   0.394   0.565  -4.773  0.4488  1.8680 -0.5243
    1R01   Ad1c 3356   0.304   0.534  -4.976 -0.5907  0.3197 -0.3324
    1R01   Ad1d 3357   0.393   0.478  -4.990 -1.0062 -0.3582  1.3374
    1R01   Ad1e 3358   0.251   0.628  -5.091 -0.0491 -0.3472  0.1653
    1R01   Ad1f 3359   0.150   0.543  -5.121 -0.5971 -0.8339  0.2694
    1R01   Ad20 3360   0.054   0.574  -5.217 -0.5794 -0.0633  0.1283
    1R01   Ad21 3361  -0.084   0.507  -5.213  0.1427 -0.1439  1.2719
    1R01   Ad22 3362  -0.109   0.460  -5.312  0.5906  0.8055 -1.6322
    1R01   Ad23 3363  -0.162   0.579  -5.204  0.6788 -2.2415  1.2859
    1R01   Ad24 3364  -0.107   0.438  -5.132 -0.5852 -0.2628 -0.1892
    1R01   Ad25 3365   0.070   0.700  -5.272 -0.1489 -0.0395  0.2334
    1R01   Ad26 3366   0.173   0.789  -5.252  0.1119  0.7841  0.4523
    1R01   Ad27 3367   0.264   0.753  -5.150  0.4473 -0.3780  0.5687
    1R01   Ad28 3368   0.390   0.833  -5.098  0.5590 -0.5257 -0.1182
    1R01   Ad29 3369   0.367   0.883  -4.998 -0.9299  2.8418  1.1924
    1R01   Ad2a 3370   0.474   0.769  -5.090  1.7720  0.2228  0.6899
    1R01   Ad2b 3371   0.417   0.912  -5.172 -1.8221 -1.0460  1.2866
    1R01   Ad2c 3372   0.180   0.453  -5.012 -0.7079 -0.2698 -0.1645
    1R01   Ad2d 3373   0.205   0.356  -5.063 -2.4307 -0.4504 -1.4044
    1R01   Ad2e 3374   0.100   0.429  -4.874  0.1902 -0.2049 -0.3559
    1R01   Ad2f 3375   0.021   0.350  -4.876 -2.3463 -0.8591 -0.3443
    1R01   Ad30 3376   0.229   0.408  -4.788  0.1422  0.3770  0.3684
    1R01   Ad31 3377   0.286   0.322  -4.824  0.7827 -1.4832  1.0896
    1R01   Ad32 3378   0.223   0.391  -4.679  1.3793  0.6571  0.5145
    1R01   Ad33 3379   0.122   0.756  -4.864 -0.8949  0.4155  0.3865
    1R01   Ad34 3380   0.133   0.901  -4.876 -0.2200  0.9552 -0.6686
    1R01   Ad35 3381   0.222   0.963  -4.861  0.5748  2.0626  0.0888
    1R01   Ad36 3382   2.656   4.032  -3.566  0.1176  0.0571  0.5284
    1R01   Ad37 3383   2.648   4.048  -3.670  1.1088  1.0019  1.1957
    1R01   Ad38 3384   2.689   3.926  -3.546 -1.3959 -0.8338 -0.7492
    1R01   Ad39 3385   2.549   4.035  -3.547  1.3193 -2.3121  1.6782
    1R01   Ad3a 3386   2.744   4.137  -3.494  0.0170  0.1112 -0.6144
    1R01   Ad3b 3387   2.889   4.106  -3.554  0.3405  0.0322 -0.4427
    1R01   Ad3c 3388   2.899   3.998  -3.548 -0.4801 -1.3110 -0.7284
    1R01   Ad3d 3389   2.974   4.137  -3.485  1.1274  1.6098  0.2737
    1R01   Ad3e 3390   2.903   4.152  -3.653 -1.6322  1.1971 -2.4372
    1R01   Ad3f 3391   2.740   4.123  -3.342  0.3828 -0.4380  0.6904
    1R01   Ad40 3392   2.719   4.247  -3.285 -0.1991  0.1941  0.0935
    1R01   Ad41 3393   2.717   4.267  -3.141  0.1511 -0.0940 -0.9303
    1R01   Ad42 3394   2.710   4.360  -3.092  0.0661  1.4102  0.2109
    1R01   Ad43 3395   2.747   4.151  -3.068  0.5746 -0.6687  0.2051
    1R01   Ad44 3396   2.766   4.104  -2.921 -0.5506  0.1000 -0.1582
    1R01   Ad45 3397   2.666   4.103  -2.869 -1.4728  1.9865  0.9283
    1R01   Ad46 3398   2.795   3.962  -2.996 -0.0769 -0.3658  1.0991
    1R01   Ad47 3399   2.710   3.886  -2.992 -1.4402  0.4116  0.9512
    1R01   Ad48 3400   2.934   3.913  -2.961 -0.7782 -0.2584 -0.0739
    1R01   Ad49 3401   2.979   3.844  -3.031 -0.2658  0.1538 -0.3716
    1R01   Ad4a 3402   2.894   3.853  -2.819  0.1015 -0.7124  0.7081
    1R01   Ad4b 3403   2.822   3.771  -2.832 -1.2947  0.5218  0.0997
    1R01   Ad4c 3404   2.864   3.979  -2.730  0.7460 -0.3012 -0.4276
    1R01   Ad4d 3405   2.755   3.975  -2.695 -0.9148 -1.9851 -0.7998
    1R01   Ad4e 3406   2.889   4.107  -2.821 -0.1555 -0.2485  1.2038
    1R01   Ad4f 3407   2.910   4.201  -2.776  0.6576 -0.5464 -0.0752
    1R01   Ad50 3408   3.001   4.050  -2.916  0.5237  0.2105  0.2016
    1R01   Ad51 3409   3.101   4.032  -2.864 -1.5284 -3.0780  1.5322
    1R01   Ad52 3410   3.015   4.122  -2.994 -3.3268 -1.1319  0.4593
    1R01   Ad53 3411   2.763   4.034  -3.122 -0.2658  0.6558  0.5730
    1R01   Ad54 3412   2.765   4.010  -3.258 -0.1702  0.2880 -0.0803
    1R01   Ad55 3413   2.796   3.916  -3.299  1.6026 -0.9549 -1.0611
    1R01   Ad56 3414   2.701   4.344  -3.392 -0.4111 -0.1317 -0.7136
    1R01   Ad57 3415   2.712   4.281  -3.519  0.0889  0.0338  0.1639
    1R01   Ad58 3416   2.732   4.357  -3.634  0.2876  0.2271 -0.4772
    1R01   Ad59 3417   2.760   4.312  -3.724 -1.6752  1.1409 -0.2417
    1R01   Ad5a 3418   2.711   4.493  -3.620  0.0883  0.7987  0.4484
    1R01   Ad5b 3419   2.756   4.622  -3.698 -0.1242  0.7094  0.2038
    1R01   Ad5c 3420   2.859   4.616  -3.727  0.5631  0.3216  1.9424
    1R01   Ad5d 3421   2.747   4.692  -3.556  0.6985 -0.6721  0.8037
    1R01   Ad5e 3422   2.848   4.716  -3.521 -0.2379 -1.6589 -0.4598
    1R01   Ad5f 3423   2.669   4.832  -3.570 -0.5445 -0.2616  0.5559
    1R01   Ad60 3424   2.687   4.919  -3.510 -0.3928  0.3524 -0.7742
    1R01   Ad61 3425   2.521   4.793  -3.606 -0.1038 -0.0391 -0.0571
    1R01   Ad62 3426   2.460   4.885  -3.616 -1.2714 -1.8742  1.2283
    1R01   Ad63 3427   2.445   4.667  -3.561  0.4249  0.3350 -0.7255
    1R01   Ad64 3428   2.446   4.609  -3.679  0.1953 -0.2145 -0.4407
    1R01   Ad65 3429   2.378   4.489  -3.703  0.2669  0.6166  0.3896
    1R01   Ad66 3430   2.373   4.416  -3.837  0.1018 -0.5305  0.1022
    1R01   Ad67 3431   2.309   4.464  -3.912 -0.4452 -1.0366  0.0188
    1R01   Ad68 3432   2.348   4.307  -3.826  0.8565 -0.3648 -0.7963
    1R01   Ad69 3433   2.472   4.436  -3.881  0.6458  5.0154 -2.6777
    1R01   Ad6a 3434   2.316   4.430  -3.582  0.3752  0.2054 -0.4468
    1R01   Ad6b 3435   2.337   4.488  -3.459 -0.7023 -0.1702 -0.2797
    1R01   Ad6c 3436   2.393   4.616  -3.443 -0.4470  0.0648 -0.5700
    1R01   Ad6d 3437   2.397   4.692  -3.316  0.0361 -0.1706  0.4505
    1R01   Ad6e 3438   2.311   4.674  -3.255 -0.2577  2.4633 -0.9464
    1R01   Ad6f 3439   2.407   4.803  -3.343  1.9301  2.1525 -0.9813
    1R01   Ad70 3440   2.473   4.654  -3.261 -1.8866  0.3676 -0.9548
    1R01   Ad71 3441   2.525   4.713  -3.747 -0.1397  0.2414  0.1173
    1R01   Ad72 3442   2.463   4.749  -3.826  1.3191 -0.5643  1.8438
    1R01   Ad73 3443   2.672   4.716  -3.788  0.5141 -0.2794 -0.4048
    1R01   Ad74 3444   2.693   4.708  -3.894 -1.6275  0.0697  1.5319
    1R01   Ad75 3445   2.723   4.851  -3.722  0.5563  0.5405 -0.4577
    1R01   Ad76 3446   2.682   4.943  -3.758  0.4016  1.3267 -0.7668
    1R01   Ad77 3447   2.836   4.870  -3.729  2.4573  1.7987 -1.8771
    1R01   Ad78 3448   2.703   4.556  -3.502  0.9365  0.2087  0.0977
    1R01   Ad79 3449   2.697   4.489  -3.383 -0.3840  0.9535  0.5949
    1R01   Ad7a 3450   2.701   4.536  -3.288 -1.9113  0.5083  1.2620
    1R01   Ad7b 3451  -3.180   0.994  -6.558 -0.1748 -0.1331  0.2476
    1R01   Ad7c 3452  -3.141   1.075  -6.616 -1.9748 -1.0752  0.4589
    1R01   Ad7d 3453  -3.158   1.010  -6.454  0.0706 -1.0348 -0.0037
    1R01   Ad7e 3454  -3.287   0.993  -6.575 -0.1210  1.5541  1.7298
    1R01   Ad7f 3455  -3.118   0.866  -6.613  0.1891  1.0765  0.4395
    1R01   Ad80 3456  -3.150   0.737  -6.525 -1.0040  0.5530 -0.3826
    1R01   Ad81 3457  -3.252   0.696  -6.531 -0.0175 -1.5097 -2.7808
    1R01   Ad82 3458  -3.090   0.649  -6.549  1.5029  4.0907  0.3347
    1R01   Ad83 3459  -3.118   0.749  -6.426 -0.8187 -0.5320 -2.6898
    1R01   Ad84 3460  -2.970   0.885  -6.627  0.7714 -0.0164  0.7084
    1R01   Ad85 3461  -2.934   0.870  -6.762 -0.2089 -0.4197  0.4527
    1R01   Ad86 3462  -2.802   0.897  -6.807 -0.7610 -0.0904 -0.1860
    1R01   Ad87 3463  -2.785   0.910  -6.907 -1.0105 -1.1351  1.1810
    1R01   Ad88 3464  -2.710   0.923  -6.705  0.8028 -0.3113 -0.2070
    1R01   Ad89 3465  -2.594   1.018  -6.698 -0.3056  0.3565 -0.1262
    1R01   Ad8a 3466  -2.617   1.108  -6.761 -0.0714  1.4923 -1.7337
    1R01   Ad8b 3467  -2.637   1.038  -6.543 -0.8831  0.1770 -0.1209
    1R01   Ad8c 3468  -2.693   1.129  -6.522 -1.7984 -1.1976 -0.0141
    1R01   Ad8d 3469  -2.499   1.015  -6.465 -0.6930 -0.2215  0.1225
    1R01   Ad8e 3470  -2.508   0.983  -6.366 -0.3855 -1.7650 -0.1618
    1R01   Ad8f 3471  -2.426   1.146  -6.506 -0.3470  0.2613  0.0257
    1R01   Ad90 3472  -2.475   1.236  -6.470 -2.8525  0.6535  0.6166
    1R01   Ad91 3473  -2.395   1.125  -6.660 -0.1817 -0.2552  0.6707
    1R01   Ad92 3474  -2.431   1.198  -6.728  1.1050 -0.5436  0.0489
    1R01   Ad93 3475  -2.439   0.988  -6.703  0.5811 -0.1389 -0.4019
    1R01   Ad94 3476  -2.395   0.944  -6.792 -2.7206 -1.2183 -0.3484
    1R01   Ad95 3477  -2.421   0.920  -6.563  0.1310 -0.1648 -0.3740
    1R01   Ad96 3478  -2.321   0.906  -6.521 -2.3900  2.7419  2.7293
    1R01   Ad97 3479  -2.466   0.822  -6.559  0.6893  0.8065  2.7486
    1R01   Ad98 3480  -2.744   0.939  -6.573 -0.7591  0.4103 -0.3459
    1R01   Ad99 3481  -2.877   0.928  -6.527 -0.1153  0.5356 -0.0590
    1R01   Ad9a 3482  -2.909   0.950  -6.422 -1.2398 -1.7198  1.6739
    1R01   Ad9b 3483  -3.058   0.844  -6.836  0.9067 -0.6784 -0.0258
    1R01   Ad9c 3484  -3.169   0.848  -6.756 -0.5282  1.0480  0.5609
    1R01   Ad9d 3485  -3.298   0.863  -6.808  0.2901 -0.5601  0.7847
    1R01   Ad9e 3486  -3.381   0.891  -6.750 -1.6186  0.4381 -0.7753
    1R01   Ad9f 3487  -3.307   0.841  -6.945 -0.3179  0.2565 -0.2833
    1R01   Ada0 3488  -3.390   0.899  -7.060  0.6780 -0.4990  0.4917
    1R01   Ada1 3489  -3.406   1.008  -7.054 -3.2872 -1.7600 -1.4091
    1R01   Ada2 3490  -3.266   0.850  -7.148  1.1944  0.6197 -0.0285
    1R01   Ada3 3491  -3.208   0.927  -7.195  0.6259 -3.1135 -0.6207
    1R01   Ada4 3492  -3.334   0.763  -7.261  0.7140  0.1269 -0.3679
    1R01   Ada5 3493  -3.265   0.698  -7.315 -0.5572 -0.6708  2.9701
    1R01   Ada6 3494  -3.420   0.855  -7.351  0.3334 -0.6052 -0.5117
    1R01   Ada7 3495  -3.461   0.795  -7.431  0.3775 -0.4770  0.4537
    1R01   Ada8 3496  -3.388   0.998  -7.384  0.6113 -0.1328 -0.1244
    1R01   Ada9 3497  -3.483   1.054  -7.305  0.1209  0.0581  0.3351
    1R01   Adaa 3498  -3.483   1.187  -7.264 -0.5295  0.7108  0.0167
    1R01   Adab 3499  -3.581   1.233  -7.159 -0.5294 -0.0205 -0.5460
    1R01   Adac 3500  -3.680   1.256  -7.203 -2.2563  0.6514 -3.2870
    1R01   Adad 3501  -3.590   1.157  -7.077  2.4554 -1.3256 -1.9548
    1R01   Adae 3502  -3.550   1.322  -7.101  1.2034 -1.9657 -0.0657
    1R01   Adaf 3503  -3.373   1.257  -7.306 -0.7242  1.0697  0.0491
    1R01   Adb0 3504  -3.272   1.200  -7.385 -0.4888  0.5024  0.4662
    1R01   Adb1 3505  -3.273   1.063  -7.419 -0.3728  0.7160 -0.1646
    1R01   Adb2 3506  -3.157   0.996  -7.485 -0.3865  0.1251  0.6870
    1R01   Adb3 3507  -3.078   1.066  -7.506 -1.5328  0.2831  1.0779
    1R01   Adb4 3508  -3.112   0.919  -7.421  0.4139 -0.1045  1.0632
    1R01   Adb5 3509  -3.187   0.940  -7.575  2.1174 -1.7630  0.2285
    1R01   Adb6 3510  -3.540   0.912  -7.258 -0.4006  0.4451  0.2620
    1R01   Adb7 3511  -3.633   0.888  -7.308  1.4135  0.3405  1.6040
    1R01   Adb8 3512  -3.516   0.833  -7.115 -0.9020  0.0669 -0.2169
    1R01   Adb9 3513  -3.606   0.829  -7.051  1.7759 -0.5687  2.6675
    1R01   Adba 3514  -3.452   0.704  -7.176 -0.3343  0.5813  0.0522
    1R01   Adbb 3515  -3.527   0.649  -7.242  0.9168 -1.3752  0.1493
    1R01   Adbc 3516  -3.424   0.631  -7.095  1.5916 -0.2353  0.3791
    1R01   Adbd 3517  -3.203   0.806  -7.026  0.2901 -0.2933 -0.0784
    1R01   Adbe 3518  -3.073   0.820  -6.976 -0.0501 -0.9005  0.2573
    1R01   Adbf 3519  -2.994   0.837  -7.049  2.5082 -3.1881 -1.3431
    1R01   Adc0 3520   5.485   1.004   2.851  0.5965  0.2484  0.2967
    1R01   Adc1 3521   5.529   0.904   2.852  1.7395  3.1914  0.6848
    1R01   Adc2 3522   5.580   1.066   2.840 -1.8687  2.6695  2.7360
    1R01   Adc3 3523   5.430   1.022   2.946  1.5463 -0.2436 -2.1890
    1R01   Adc4 3524   5.398   1.033   2.735  0.1335 -0.3720  1.2121
    1R01   Adc5 3525   5.434   0.968   2.595  0.3775 -0.5062 -0.1993
    1R01   Adc6 3526   5.439   0.862   2.587 -2.3627 -0.1938 -0.5573
    1R01   Adc7 3527   5.532   0.998   2.575 -0.7103 -0.6163  1.6395
    1R01   Adc8 3528   5.379   1.013   2.512  4.0097  3.8900  0.4269
    1R01   Adc9 3529   5.391   1.177   2.726  0.5808 -1.0488  1.3074
    1R01   Adca 3530   5.269   1.215   2.783  0.5148  0.5959  0.8581
    1R01   Adcb 3531   5.235   1.353   2.791 -0.1586  0.1876 -0.5726
    1R01   Adcc 3532   5.134   1.381   2.823  1.0547 -2.4802 -1.5927
    1R01   Adcd 3533   5.337   1.440   2.745 -0.6107 -0.3497 -0.5011
    1R01   Adce 3534   5.351   1.581   2.698 -0.3032  0.2709 -0.4173
    1R01   Adcf 3535   5.389   1.653   2.779 -0.0995 -0.3031  0.3685
    1R01   Add0 3536   5.475   1.526   2.617 -0.6730 -0.0055 -0.5998
    1R01   Add1 3537   5.569   1.567   2.639 -2.7982 -1.3414 -3.0191
    1R01   Add2 3538   5.435   1.545   2.467  0.5488 -0.0679 -0.0640
    1R01   Add3 3539   5.483   1.473   2.398 -0.6590 -0.2942 -3.0186
    1R01   Add4 3540   5.460   1.694   2.446  0.7382 -1.1670 -0.6588
    1R01   Add5 3541   5.570   1.721   2.459  0.7811  0.8697 -0.2188
    1R01   Add6 3542   5.345   1.762   2.535  0.4073 -0.0602 -0.0100
    1R01   Add7 3543   5.389   1.829   2.614  1.4264 -1.7026  1.5327
    1R01   Add8 3544   5.258   1.643   2.592 -0.5034 -0.6263  0.1063
    1R01   Add9 3545   5.152   1.672   2.610  0.4291  3.6177 -0.5396
    1R01   Adda 3546   5.280   1.537   2.472  0.2800  0.3869 -0.3804
    1R01   Addb 3547   5.231   1.573   2.382  2.7141  1.1600  2.1507
    1R01   Addc 3548   5.241   1.437   2.493 -2.0943  2.6872 -2.7599
    1R01   Addd 3549   5.454   1.401   2.695 -0.7037 -0.7823  0.0580
    1R01   Adde 3550   5.488   1.268   2.680  0.0843 -0.1911 -0.5435
    1R01   Addf 3551   5.567   1.235   2.608  0.7824 -1.4200 -1.5830
    1R01   Ade0 3552   5.196   1.098   2.820 -0.1167 -0.2782  0.0679
    1R01   Ade1 3553   5.263   0.988   2.782  0.2126 -0.1548 -0.3340
    1R01   Ade2 3554   5.208   0.862   2.770 -0.0516  0.7617 -0.4185
    1R01   Ade3 3555   5.265   0.777   2.740  0.1148 -0.1750 -1.6154
    1R01   Ade4 3556   5.081   0.854   2.822  0.5829  0.2820 -0.2747
    1R01   Ade5 3557   4.964   0.762   2.833  0.7224 -0.8963  0.3073
    1R01   Ade6 3558   4.939   0.716   2.736  2.0419 -0.5498  0.2056
    1R01   Ade7 3559   4.879   0.889   2.875  0.5500  0.2070  0.0929
    1R01   Ade8 3560   4.816   0.921   2.793  0.5482  0.3889 -0.4735
    1R01   Ade9 3561   4.788   0.859   3.004  0.4054  0.1069 -0.0265
    1R01   Adea 3562   4.696   0.920   3.012  0.5865  0.9918 -0.2447
    1R01   Adeb 3563   4.886   0.846   3.120 -0.4167  0.8171  0.6605
    1R01   Adec 3564   4.838   0.847   3.215  2.3058 -0.1485 -0.6451
    1R01   Aded 3565   5.011   0.934   3.141 -0.1995  0.0698 -0.0029
    1R01   Adee 3566   5.094   0.827   3.104 -0.1563 -0.3520 -0.2670
    1R01   Adef 3567   5.227   0.826   3.142 -0.4370  0.5665 -0.3285
    1R01   Adf0 3568   5.319   0.702   3.116  0.7656  0.3261 -0.4589
    1R01   Adf1 3569   5.393   0.688   3.196  1.3110 -1.7578 -1.6707
    1R01   Adf2 3570   5.373   0.731   3.026 -0.2319  1.7832 -0.4829
    1R01   Adf3 3571   5.268   0.608   3.109  0.1725 -0.7653 -0.4315
    1R01   Adf4 3572   5.268   0.950   3.193  0.1566  0.3736 -0.8734
    1R01   Adf5 3573   5.187   1.052   3.234 -0.0202 -0.0044  0.4421
    1R01   Adf6 3574   5.048   1.050   3.215 -0.7148  0.5834 -0.6525
    1R01   Adf7 3575   4.944   1.139   3.275  0.3894  0.2978 -0.2951
    1R01   Adf8 3576   4.923   1.232   3.215 -1.9934  1.4568  2.4799
    1R01   Adf9 3577   4.984   1.170   3.375 -0.5513 -1.1116  1.2889
    1R01   Adfa 3578   4.851   1.085   3.297 -0.9271 -0.5383  0.0272
    1R01   Adfb 3579   4.984   0.720   3.087  0.2163 -0.2558  0.0097
    1R01   Adfc 3580   4.977   0.650   3.165  0.6304  2.3209  0.0772
    1R01   Adfd 3581   4.930   0.658   2.952  0.2861 -0.4422  0.0676
    1R01   Adfe 3582   4.946   0.555   2.927  0.5001 -0.1163 -2.1810
    1R01   Adff 3583   4.774   0.707   2.967 -0.5111 -0.0419  0.3609
    1R01   Ae00 3584   4.709   0.677   2.883  0.6072  2.8533 -2.3123
    1R01   Ae01 3585   4.730   0.651   3.045 -1.7089 -2.8107 -0.7810
    1R01   Ae02 3586   5.010   0.965   2.858 -1.0162  0.4171  0.6026
    1R01   Ae03 3587   5.058   1.093   2.851 -0.4334  0.6726  0.3965
    1R01   Ae04 3588   4.988   1.180   2.859  0.6068 -0.0903  0.9613
    1R01   Ae05 3589   2.170   3.736  -2.893  0.1126 -0.7631 -0.6570
    1R01   Ae06 3590   2.059   3.763  -2.903 -2.8545 -0.9294 -2.4857
    1R01   Ae07 3591   2.218   3.822  -2.842 -1.9373  0.0721 -0.1407
    1R01   Ae08 3592   2.178   3.647  -2.834 -2.7936  0.4070 -3.6978
    1R01   Ae09 3593   2.234   3.712  -3.028 -1.1814  0.2506 -0.0437
    1R01   Ae0a 3594   2.389   3.708  -2.991  0.6832 -0.1790 -0.1391
    1R01   Ae0b 3595   2.434   3.718  -3.085 -0.1748 -2.6170 -2.1321
    1R01   Ae0c 3596   2.415   3.795  -2.934 -0.1565  0.9780 -3.2140
    1R01   Ae0d 3597   2.427   3.611  -2.943  0.5907 -1.5652 -2.1770
    1R01   Ae0e 3598   2.201   3.826  -3.125 -0.0343  0.3507  0.1025
    1R01   Ae0f 3599   2.153   3.767  -3.242 -0.4685 -0.2003 -0.2960
    1R01   Ae10 3600   2.130   3.848  -3.358 -0.4409 -0.1719  0.3462
    1R01   Ae11 3601   2.110   3.808  -3.453  0.0722 -1.0411  0.0025
    1R01   Ae12 3602   2.149   3.986  -3.341  0.2650 -0.5057  0.4406
    1R01   Ae13 3603   2.151   4.117  -3.422  0.0033 -0.3085  0.1659
    1R01   Ae14 3604   2.047   4.127  -3.468 -2.7224  0.9575  1.5774
    1R01   Ae15 3605   2.178   4.184  -3.279 -0.0256 -0.6098  0.0225
    1R01   Ae16 3606   2.091   4.235  -3.244 -1.2346  1.7604  1.1417
    1R01   Ae17 3607   2.301   4.276  -3.288 -0.0400  0.4369  0.4308
    1R01   Ae18 3608   2.348   4.302  -3.196 -0.9955  2.0578 -0.5024
    1R01   Ae19 3609   2.251   4.393  -3.384 -0.3358  0.0562 -0.5581
    1R01   Ae1a 3610   2.158   4.439  -3.350 -3.7660  0.3128  0.2593
    1R01   Ae1b 3611   2.231   4.316  -3.525 -0.0282  0.3793 -0.7749
    1R01   Ae1c 3612   2.125   4.320  -3.550  0.8072  0.4636 -1.8036
    1R01   Ae1d 3613   2.267   4.167  -3.511 -0.1113  0.0777  0.0950
    1R01   Ae1e 3614   2.297   4.110  -3.597 -1.0788 -0.2880  2.4442
    1R01   Ae1f 3615   2.375   4.184  -3.399 -0.6439 -0.1567 -0.7205
    1R01   Ae20 3616   2.455   4.239  -3.448 -2.6240 -1.6962  1.1037
    1R01   Ae21 3617   2.413   4.086  -3.372  4.1896 -1.0058  1.6282
    1R01   Ae22 3618   2.188   4.042  -3.225 -0.1931 -0.7262 -0.0748
    1R01   Ae23 3619   2.219   3.967  -3.109  0.0653 -0.1320  0.3118
    1R01   Ae24 3620   2.253   4.020  -3.021 -0.7535  0.1850 -0.7300
    1R01   Ae25 3621   2.140   3.623  -3.232 -0.0084 -0.1090  0.1157
    1R01   Ae26 3622   2.182   3.587  -3.096 -0.0020  0.3013  0.1448
    1R01   Ae27 3623   2.170   3.453  -3.042  0.1094  0.4500  0.0122
    1R01   Ae28 3624   2.197   3.425  -2.947 -0.0241 -0.1402  0.6709
    1R01   Ae29 3625   2.090   3.373  -3.127 -0.6441 -0.1723 -0.5546
    1R01   Ae2a 3626   2.058   3.230  -3.136  0.4420 -0.2951  0.7634
    1R01   Ae2b 3627   2.150   3.171  -3.129 -2.0607  3.2413  1.6608
    1R01   Ae2c 3628   2.026   3.253  -3.289 -1.6845 -0.2257  0.5992
    1R01   Ae2d 3629   2.104   3.223  -3.359 -1.9129 -2.8402  2.2629
    1R01   Ae2e 3630   1.895   3.181  -3.327 -0.3122  0.0498 -0.0688
    1R01   Ae2f 3631   1.885   3.133  -3.430  0.1415  0.3395  1.4562
    1R01   Ae30 3632   1.776   3.252  -3.254 -0.5300  0.2739 -0.2850
    1R01   Ae31 3633   1.680   3.198  -3.277 -3.0263 -1.4566  0.5347
    1R01   Ae32 3634   1.751   3.402  -3.239  0.0618 -0.3870 -0.2555
    1R01   Ae33 3635   1.791   3.400  -3.111 -0.7306  0.6531  0.1777
    1R01   Ae34 3636   1.820   3.519  -3.038  0.7246  0.8125 -0.6026
    1R01   Ae35 3637   1.877   3.509  -2.896  0.2057 -0.5868 -0.3316
    1R01   Ae36 3638   1.794   3.471  -2.830  1.6239 -1.1199 -0.0616
    1R01   Ae37 3639   1.918   3.601  -2.851 -0.1251  1.6669  1.1346
    1R01   Ae38 3640   1.949   3.425  -2.892 -0.0546  1.0719 -0.1119
    1R01   Ae39 3641   1.793   3.634  -3.109  0.2085 -0.0738 -0.4931
    1R01   Ae3a 3642   1.758   3.632  -3.245 -0.7023 -0.5646 -0.2842
    1R01   Ae3b 3643   1.740   3.512  -3.323 -0.4235  0.3650 -0.4407
    1R01   Ae3c 3644   1.740   3.504  -3.468 -0.7379  0.7612 -0.2454
    1R01   Ae3d 3645   1.646   3.448  -3.499  0.9027  2.1348 -0.8543
    1R01   Ae3e 3646   1.736   3.605  -3.515 -0.1634  2.1904  1.4946
    1R01   Ae3f 3647   1.832   3.448  -3.503 -2.6625 -0.6983  0.4729
    1R01   Ae40 3648   1.805   3.250  -3.102  0.3038  0.1117  0.4176
    1R01   Ae41 3649   1.721   3.204  -3.044 -0.3180 -0.5015 -2.8257
    1R01   Ae42 3650   1.935   3.156  -3.079  0.3427  0.3660  0.6605
    1R01   Ae43 3651   1.936   3.111  -2.985 -5.0806  0.6039 -1.3042
    1R01   Ae44 3652   1.907   3.069  -3.213 -0.0290  0.3366 -0.3390
    1R01   Ae45 3653   1.982   2.995  -3.239  1.3081 -0.0803 -2.0134
    1R01   Ae46 3654   1.813   3.014  -3.205  0.8711 -0.2907  2.0970
    1R01   Ae47 3655   2.069   3.393  -3.261 -0.2207 -0.5671 -0.7029
    1R01   Ae48 3656   2.080   3.525  -3.313 -0.5072  0.5067 -0.1737
    1R01   Ae49 3657   2.050   3.548  -3.417  3.1170  0.9454 -0.0552
    1R01   Ae4a 3658   0.469   3.463   1.371 -0.6166  0.2483  0.2927
    1R01   Ae4b 3659   0.548   3.542   1.381 -0.2045  2.6161 -0.8278
    1R01   Ae4c 3660   0.411   3.484   1.278  0.6446 -0.4078 -0.3552
    1R01   Ae4d 3661   0.404   3.472   1.458  2.3503 -2.1117 -1.2916
    1R01   Ae4e 3662   0.537   3.327   1.346  0.1696  0.9186 -0.3490
    1R01   Ae4f 3663   0.610   3.330   1.210  0.4332  0.0944  0.3544
    1R01   Ae50 3664   0.690   3.411   1.208  2.1035 -0.4403  1.9444
    1R01   Ae51 3665   0.538   3.346   1.126  2.6075 -1.4471  1.5418
    1R01   Ae52 3666   0.654   3.227   1.191 -0.6789  1.4208  0.6552
    1R01   Ae53 3667   0.435   3.205   1.351  0.3961 -0.5936  0.1970
    1R01   Ae54 3668   0.466   3.133   1.465  0.6418 -0.4159 -0.0917
    1R01   Ae55 3669   0.413   3.003   1.482  0.0644 -0.1925  0.3641
    1R01   Ae56 3670   0.437   2.936   1.563  1.9151 -3.1554  1.0681
    1R01   Ae57 3671   0.314   2.964   1.384 -0.0155  0.2763 -0.6029
    1R01   Ae58 3672   0.229   2.847   1.339  0.1394  0.5678  0.1613
    1R01   Ae59 3673   0.142   2.834   1.404  1.0332 -1.4443  1.1536
    1R01   Ae5a 3674   0.203   2.938   1.214 -0.3639  0.1691 -0.5720
    1R01   Ae5b 3675   0.104   2.979   1.190  1.1586  0.9543 -3.6050
    1R01   Ae5c 3676   0.238   2.844   1.092 -0.9591  0.2113  0.5291
    1R01   Ae5d 3677   0.260   2.884   0.991 -2.5593 -1.0458  1.3610
    1R01   Ae5e 3678   0.122   2.746   1.090  1.0402  0.1559  0.4719
    1R01   Ae5f 3679   0.018   2.793   1.083 -0.0706 -0.2270 -1.6609
    1R01   Ae60 3680   0.140   2.652   1.221  0.0157 -0.2339  0.2866
    1R01   Ae61 3681   0.059   2.662   1.288 -0.5142  2.4790  0.4528
    1R01   Ae62 3682   0.275   2.706   1.287 -0.5587 -0.4889  0.7242
    1R01   Ae63 3683   0.332   2.641   1.355 -1.5748 -0.7212  0.3074
    1R01   Ae64 3684   0.349   2.754   1.160  0.4234 -0.0606  1.4885
    1R01   Ae65 3685   0.391   2.673   1.096 -0.2316 -1.8438  0.0600
    1R01   Ae66 3686   0.437   2.817   1.178 -0.3415 -2.0178 -0.3461
    1R01   Ae67 3687   0.284   3.044   1.277  0.2087 -0.8866  0.2091
    1R01   Ae68 3688   0.352   3.155   1.247 -0.4617  0.1133  0.4009
    1R01   Ae69 3689   0.340   3.198   1.150 -1.7877  0.8207  1.3390
    1R01   Ae6a 3690   0.574   3.191   1.543 -0.1777 -0.0932 -0.1961
    1R01   Ae6b 3691   0.627   3.302   1.471 -0.1430  0.5354 -0.3331
    1R01   Ae6c 3692   0.745   3.365   1.514 -0.5797  1.2186  0.2148
    1R01   Ae6d 3693   0.795   3.441   1.458 -0.5652  0.5151  0.8500
    1R01   Ae6e 3694   0.794   3.324   1.628 -0.1517  0.9441 -0.4205
    1R01   Ae6f 3695   0.916   3.341   1.714  0.5225  0.5629 -0.3900
    1R01   Ae70 3696   1.006   3.304   1.666  0.1663  0.6445 -2.5075
    1R01   Ae71 3697   0.857   3.228   1.800  0.5731  0.7040 -0.4653
    1R01   Ae72 3698   0.911   3.131   1.792 -0.3814 -0.4303 -1.9420
    1R01   Ae73 3699   0.852   3.283   1.954 -0.1734 -0.7121  0.6898
    1R01   Ae74 3700   0.848   3.213   2.036 -2.3408  1.4663 -0.7995
    1R01   Ae75 3701   0.739   3.398   1.944  0.7419  0.3999 -0.4613
    1R01   Ae76 3702   0.651   3.357   1.899  1.8884 -0.0928 -1.5118
    1R01   Ae77 3703   0.709   3.507   2.049  0.0774  0.2156  0.2188
    1R01   Ae78 3704   0.759   3.606   1.964  0.2676 -0.6207 -0.8014
    1R01   Ae79 3705   0.813   3.727   2.014  0.2096 -0.1978 -0.2854
    1R01   Ae7a 3706   0.933   3.803   1.952  0.0614 -0.0844 -0.0471
    1R01   Ae7b 3707   1.030   3.755   1.976  0.2740  0.0143 -1.3661
    1R01   Ae7c 3708   0.918   3.817   1.843  0.8744 -0.6495 -0.4940
    1R01   Ae7d 3709   0.943   3.901   1.992  0.9362 -0.8021  0.8971
    1R01   Ae7e 3710   0.773   3.743   2.150  0.1832 -0.3820  0.1773
    1R01   Ae7f 3711   0.719   3.646   2.231 -0.1218 -0.9271 -0.9969
    1R01   Ae80 3712   0.701   3.515   2.184  0.0122  0.9194 -0.4501
    1R01   Ae81 3713   0.692   3.401   2.289 -0.4601 -0.2071 -0.2946
    1R01   Ae82 3714   0.604   3.412   2.358  1.0474  1.8642 -1.5460
    1R01   Ae83 3715   0.690   3.300   2.242  0.1522 -0.7569 -1.1790
    1R01   Ae84 3716   0.776   3.409   2.352  2.9681 -0.5874 -1.9007
    1R01   Ae85 3717   0.798   3.508   1.854  0.3560 -0.1164  0.2191
    1R01   Ae86 3718   0.746   3.525   1.762 -1.6945 -0.7505  2.0915
    1R01   Ae87 3719   0.940   3.459   1.815 -0.1641  0.1105  0.8774
    1R01   Ae88 3720   1.013   3.528   1.777  0.7183  1.5358  1.0674
    1R01   Ae89 3721   0.981   3.380   1.939  0.0061  0.4284 -0.0656
    1R01   Ae8a 3722   1.078   3.328   1.916  0.0449 -0.6157  0.8541
    1R01   Ae8b 3723   0.997   3.441   2.027 -0.8653 -1.0535  1.0285
    1R01   Ae8c 3724   0.744   3.220   1.699  0.3466  0.0391 -0.2042
    1R01   Ae8d 3725   0.633   3.138   1.659 -0.4705  0.0346 -0.0852
    1R01   Ae8e 3726   0.612   3.046   1.704 -0.6518 -0.2601  0.2832
    1R01   Ae8f 3727  -5.539  -1.006  -4.853  0.5761 -0.2586  0.2700
    1R01   Ae90 3728  -5.478  -1.027  -4.937 -0.2328 -1.9456  0.3551
    1R01   Ae91 3729  -5.475  -0.957  -4.775  1.4977 -0.9861 -0.2551
    1R01   Ae92 3730  -5.575  -1.104  -4.809 -1.4631  0.2048  2.3393
    1R01   Ae93 3731  -5.661  -0.914  -4.880 -0.1970  0.3084  0.2258
    1R01   Ae94 3732  -5.759  -0.913  -4.764  1.5501  0.2521 -0.0327
    1R01   Ae95 3733  -5.850  -0.856  -4.794  1.2372 -1.3120  0.4456
    1R01   Ae96 3734  -5.709  -0.872  -4.673 -0.5718  2.4149  0.0180
    1R01   Ae97 3735  -5.788  -1.015  -4.743  3.5297 -0.5922  0.4158
    1R01   Ae98 3736  -5.730  -0.946  -5.015 -0.4625 -0.2673  0.3232
    1R01   Ae99 3737  -5.706  -0.835  -5.103  0.0493 -0.2458  1.1671
    1R01   Ae9a 3738  -5.764  -0.830  -5.233  0.0971  0.5922  0.5114
    1R01   Ae9b 3739  -5.753  -0.751  -5.306  0.7691 -1.3301 -0.1694
    1R01   Ae9c 3740  -5.859  -0.934  -5.249  0.0712 -1.3422  1.2013
    1R01   Ae9d 3741  -5.932  -1.005  -5.354 -0.7195  0.0779  0.6686
    1R01   Ae9e 3742  -5.863  -1.031  -5.432  0.3349  1.0174  1.0891
    1R01   Ae9f 3743  -5.963  -1.115  -5.247  0.0354  0.1019  0.3710
    1R01   Aea0 3744  -5.917  -1.219  -5.262  1.4108 -0.2544 -2.7049
    1R01   Aea1 3745  -6.121  -1.123  -5.222  0.8682 -0.3427  0.1683
    1R01   Aea2 3746  -6.151  -1.145  -5.123 -2.8109 -2.0047  0.8748
    1R01   Aea3 3747  -6.151  -1.212  -5.342  0.7734 -0.4391 -0.6431
    1R01   Aea4 3748  -6.106  -1.308  -5.336 -2.4334  0.3083  0.8430
    1R01   Aea5 3749  -6.119  -1.116  -5.471  0.6297  0.3118  0.4230
    1R01   Aea6 3750  -6.046  -1.170  -5.532  1.6915 -0.4701  0.3743
    1R01   Aea7 3751  -6.077  -0.978  -5.416 -0.1188 -0.3979  0.4205
    1R01   Aea8 3752  -6.092  -0.892  -5.477 -1.0627 -0.3348  0.2308
    1R01   Aea9 3753  -6.168  -0.983  -5.287  1.1795 -0.4033  0.0580
    1R01   Aeaa 3754  -6.138  -0.903  -5.219  0.7297  0.2287 -0.8845
    1R01   Aeab 3755  -6.274  -0.978  -5.306  0.5533 -0.0487 -3.4681
    1R01   Aeac 3756  -5.881  -1.035  -5.159  0.2342 -1.1344  0.1774
    1R01   Aead 3757  -5.820  -1.048  -5.036  0.2047  0.1005 -0.1891
    1R01   Aeae 3758  -5.838  -1.128  -4.970  2.0336  0.9000  2.0723
    1R01   Aeaf 3759  -5.632  -0.733  -5.032  0.2688  0.0307  0.2055
    1R01   Aeb0 3760  -5.613  -0.771  -4.896  0.3327 -0.2649 -0.9565
    1R01   Aeb1 3761  -5.576  -0.683  -4.798 -0.1225 -0.2535  0.6031
    1R01   Aeb2 3762  -5.570  -0.720  -4.696  0.4659  1.7799 -3.8553
    1R01   Aeb3 3763  -5.552  -0.548  -4.834 -0.7166  0.1759  0.0085
    1R01   Aeb4 3764  -5.592  -0.416  -4.772  0.0508  0.0413  0.6160
    1R01   Aeb5 3765  -5.677  -0.429  -4.704  1.8365 -0.6876  0.4628
    1R01   Aeb6 3766  -5.639  -0.371  -4.917 -0.8532  0.3613  0.0486
    1R01   Aeb7 3767  -5.747  -0.377  -4.938 -0.9970  1.4267 -1.7416
    1R01   Aeb8 3768  -5.590  -0.228  -4.938  0.8201 -0.0764  0.3417
    1R01   Aeb9 3769  -5.647  -0.159  -5.005  1.5792  1.7547  0.9638
    1R01   Aeba 3770  -5.443  -0.235  -4.954  0.1204  0.3550 -0.0782
    1R01   Aebb 3771  -5.408  -0.136  -4.996  1.6389  0.2235 -0.1862
    1R01   Aebc 3772  -5.366  -0.344  -5.022  0.0365  0.2212 -1.0895
    1R01   Aebd 3773  -5.306  -0.391  -4.905 -0.4095  0.3078 -0.4453
    1R01   Aebe 3774  -5.188  -0.469  -4.904  0.3618  0.4257 -1.0847
    1R01   Aebf 3775  -5.110  -0.483  -4.776 -0.0634 -0.7035  1.2655
    1R01   Aec0 3776  -5.002  -0.458  -4.791 -0.8118  0.6263  1.7011
    1R01   Aec1 3777  -5.162  -0.422  -4.698  0.2717 -1.2713 -1.5837
    1R01   Aec2 3778  -5.108  -0.592  -4.760 -0.7076 -0.3971 -0.3212
    1R01   Aec3 3779  -5.144  -0.506  -5.031 -0.1813  0.5895 -0.0952
    1R01   Aec4 3780  -5.197  -0.452  -5.144 -0.3634 -0.6714 -0.1919
    1R01   Aec5 3781  -5.312  -0.368  -5.147  0.1001 -0.5351 -0.4395
    1R01   Aec6 3782  -5.351  -0.284  -5.274 -0.4403  0.0255  0.2748
    1R01   Aec7 3783  -5.423  -0.347  -5.333  0.6682 -4.1770 -0.4146
    1R01   Aec8 3784  -5.400  -0.192  -5.245 -0.1842 -3.8716  0.4890
    1R01   Aec9 3785  -5.273  -0.257  -5.336 -1.3001 -0.6388  0.9559
    1R01   Aeca 3786  -5.377  -0.288  -4.817 -0.3695 -0.1838 -0.2823
    1R01   Aecb 3787  -5.301  -0.221  -4.773 -0.9594 -0.8187 -1.7606
    1R01   Aecc 3788  -5.500  -0.299  -4.716 -0.1748  0.1177  0.0887
    1R01   Aecd 3789  -5.477  -0.293  -4.611  1.3853 -0.7649  0.2110
    1R01   Aece 3790  -5.584  -0.182  -4.781 -0.1223 -0.2070  0.1972
    1R01   Aecf 3791  -5.684  -0.163  -4.738  0.6448 -0.9745 -1.5054
    1R01   Aed0 3792  -5.531  -0.085  -4.761  1.7972 -1.4562 -0.9284
    1R01   Aed1 3793  -5.577  -0.507  -4.962 -0.8648  0.3395  0.5784
    1R01   Aed2 3794  -5.619  -0.596  -5.065 -0.2682 -0.0611  0.3380
    1R01   Aed3 3795  -5.659  -0.549  -5.155  4.0296  2.0338  1.7096
    1R01   Aed4 3796   2.856   3.027   1.355 -0.2141 -0.5306  0.2565
    1R01   Aed5 3797   2.895   2.945   1.412  1.1633 -0.1841 -1.3444
    1R01   Aed6 3798   2.824   2.975   1.262 -0.4726 -2.4504 -0.7543
    1R01   Aed7 3799   2.931   3.103   1.338  0.8879 -0.6396  1.1076
    1R01   Aed8 3800   2.737   3.096   1.414 -0.3725 -0.3987 -0.2084
    1R01   Aed9 3801   2.782   3.157   1.547  0.5563  0.6670  0.2275
    1R01   Aeda 3802   2.847   3.093   1.613 -0.1732 -0.7005 -1.0207
    1R01   Aedb 3803   2.828   3.252   1.528  2.8641  1.9468 -0.7481
    1R01   Aedc 3804   2.691   3.174   1.612  0.4011 -0.7675 -1.4001
    1R01   Aedd 3805   2.612   3.010   1.440  0.0665 -0.6061  0.1835
    1R01   Aede 3806   2.524   3.038   1.335  0.4609 -0.0430 -0.2693
    1R01   Aedf 3807   2.391   2.999   1.342 -0.0790 -0.2234  0.0436
    1R01   Aee0 3808   2.322   3.043   1.275 -0.6695  0.1782  0.6492
    1R01   Aee1 3809   2.356   2.908   1.437  1.1016 -0.1537 -0.1581
    1R01   Aee2 3810   2.233   2.890   1.527  0.3380 -0.4572  0.0573
    1R01   Aee3 3811   2.159   2.826   1.476  1.9411 -0.5965  1.8641
    1R01   Aee4 3812   2.328   2.824   1.635  0.3454 -0.2577 -0.0866
    1R01   Aee5 3813   2.341   2.716   1.627  0.4127 -1.1236  0.1528
    1R01   Aee6 3814   2.304   2.894   1.772  0.0750  0.0987 -0.0003
    1R01   Aee7 3815   2.377   2.873   1.853  0.9097 -4.0099 -0.6990
    1R01   Aee8 3816   2.153   2.873   1.799  0.5129  0.0230  0.3064
    1R01   Aee9 3817   2.127   2.767   1.792  2.2415 -1.8591 -0.2464
    1R01   Aeea 3818   2.073   2.955   1.687  0.2296  0.1093 -0.3583
    1R01   Aeeb 3819   2.001   2.893   1.629  0.5013  0.0195 -1.2303
    1R01   Aeec 3820   2.178   3.025   1.604  0.6303  0.1750  0.2507
    1R01   Aeed 3821   2.151   3.100   1.528  1.8404 -2.1710 -0.3475
    1R01   Aeee 3822   2.290   3.043   1.716 -0.8612  0.5109 -0.6667
    1R01   Aeef 3823   2.275   3.109   1.802  1.9159  1.8750  0.6802
    1R01   Aef0 3824   2.381   3.083   1.682 -3.4200 -2.1111  0.7411
    1R01   Aef1 3825   2.439   2.870   1.539 -0.0123 -1.1457 -0.7957
    1R01   Aef2 3826   2.572   2.930   1.551  0.5881 -0.0145  0.1381
    1R01   Aef3 3827   2.645   2.915   1.636 -2.5291 -0.0318 -1.9065
    1R01   Aef4 3828   2.580   3.141   1.250  0.2687 -0.5161 -0.1585
    1R01   Aef5 3829   2.692   3.199   1.310  0.6253 -0.7061 -0.0454
    1R01   Aef6 3830   2.745   3.334   1.284 -0.4349 -0.8148  0.6856
    1R01   Aef7 3831   2.821   3.373   1.344 -4.3677 -2.5313  1.5623
    1R01   Aef8 3832   2.672   3.397   1.189 -0.1085 -0.6468 -0.1067
    1R01   Aef9 3833   2.634   3.544   1.161 -0.3947 -0.1085 -0.6631
    1R01   Aefa 3834   2.622   3.590   1.257 -2.0524 -1.3470 -1.4853
    1R01   Aefb 3835   2.500   3.480   1.097 -0.0265  0.0193 -0.3280
    1R01   Aefc 3836   2.412   3.497   1.153 -0.7547  0.6995 -2.2549
    1R01   Aefd 3837   2.487   3.543   0.957  0.0509  0.2046  0.3213
    1R01   Aefe 3838   2.383   3.529   0.911  0.6566 -0.0393 -1.0507
    1R01   Aeff 3839   2.597   3.486   0.870 -0.6317 -0.7848 -1.4081
    1R01   Af00 3840   2.588   3.510   0.765 -0.0334 -4.5354 -0.4160
    1R01   Af01 3841   2.686   3.364   0.876  0.2427  0.3776  0.7257
    1R01   Af02 3842   2.798   3.429   0.925  0.0684 -0.2566  0.0859
    1R01   Af03 3843   2.927   3.379   0.926 -1.0061 -0.1382 -0.3619
    1R01   Af04 3844   3.055   3.451   0.985  0.1001  0.6617  0.1350
    1R01   Af05 3845   3.026   3.554   0.987  3.1750 -0.2867  3.0443
    1R01   Af06 3846   3.136   3.417   0.920 -0.0973  0.7531 -1.8143
    1R01   Af07 3847   3.079   3.406   1.085 -0.0860  1.1683 -0.0475
    1R01   Af08 3848   2.928   3.246   0.881  0.5808  0.0875  0.0727
    1R01   Af09 3849   2.821   3.183   0.822  0.2048 -0.6273  0.8578
    1R01   Af0a 3850   2.691   3.239   0.819 -0.0636 -0.4712  0.0028
    1R01   Af0b 3851   2.589   3.194   0.727  1.0871  0.4637  0.1484
    1R01   Af0c 3852   2.624   3.112   0.667 -1.9443  0.4606  0.0528
    1R01   Af0d 3853   2.500   3.179   0.797  1.1003  1.1269  2.4108
    1R01   Af0e 3854   2.554   3.276   0.659 -1.9054  2.4960 -3.4574
    1R01   Af0f 3855   2.731   3.560   0.933 -0.0191 -0.8701 -0.5087
    1R01   Af10 3856   2.778   3.631   0.863  0.4106 -0.7517  0.4907
    1R01   Af11 3857   2.690   3.639   1.055  0.2244 -1.0080  0.1542
    1R01   Af12 3858   2.760   3.720   1.088  1.2788  3.1487 -1.4635
    1R01   Af13 3859   2.551   3.682   0.996  0.1044 -0.3127 -0.1194
    1R01   Af14 3860   2.483   3.730   1.067 -1.3492 -1.5369 -0.8434
    1R01   Af15 3861   2.550   3.747   0.910  2.7727 -2.0020 -0.9067
    1R01   Af16 3862   2.551   3.348   1.136 -0.6311 -0.0243 -0.3564
    1R01   Af17 3863   2.497   3.228   1.170 -0.0773  0.1240  0.0141
    1R01   Af18 3864   2.390   3.200   1.141 -3.2266  0.8568 -0.6055
    1R01   Af19 3865   3.453   3.523   0.554 -0.5817  0.3121  0.1923
    1R01   Af1a 3866   3.462   3.540   0.446  0.6670  2.7843 -1.7057
    1R01   Af1b 3867   3.555   3.532   0.604  1.1392 -1.7848  0.1038
    1R01   Af1c 3868   3.402   3.611   0.601 -1.2284 -0.6485 -0.1189
    1R01   Af1d 3869   3.391   3.383   0.597 -0.1513 -0.3464 -0.5272
    1R01   Af1e 3870   3.382   3.374   0.757  0.4483  0.7392 -0.0089
    1R01   Af1f 3871   3.476   3.380   0.806 -1.2428 -1.0900 -2.3336
    1R01   Af20 3872   3.342   3.280   0.790  1.9440 -0.8518  2.5608
    1R01   Af21 3873   3.329   3.457   0.793  1.8881  2.2659 -0.9108
    1R01   Af22 3874   3.466   3.264   0.536  0.6145 -0.6037 -0.3425
    1R01   Af23 3875   3.371   3.186   0.461  0.2829 -0.5851 -0.2470
    1R01   Af24 3876   3.402   3.060   0.415 -0.5204  0.6193  0.1808
    1R01   Af25 3877   3.325   2.982   0.387 -1.9777 -2.1652  5.7622
    1R01   Af26 3878   3.540   3.035   0.410  0.0583  0.2436 -0.3486
    1R01   Af27 3879   3.631   2.915   0.403 -0.3952  0.2037 -0.1837
    1R01   Af28 3880   3.661   2.901   0.300 -0.3047  2.4339 -0.9911
    1R01   Af29 3881   3.730   2.995   0.490  0.4056 -0.0103  0.3526
    1R01   Af2a 3882   3.823   3.021   0.453 -0.4331 -0.3558  0.1342
    1R01   Af2b 3883   3.747   2.908   0.616  0.1873  0.2059 -0.1493
    1R01   Af2c 3884   3.789   2.964   0.698 -4.1499  2.0408  1.7293
    1R01   Af2d 3885   3.833   2.799   0.557  0.4113  0.8232  0.1037
    1R01   Af2e 3886   3.929   2.834   0.518 -0.2269  0.1976  0.1457
    1R01   Af2f 3887   3.744   2.704   0.462 -0.3919 -0.3723  0.0054
    1R01   Af30 3888   3.793   2.695   0.368 -0.2204  1.7534  0.2614
    1R01   Af31 3889   3.603   2.777   0.468  0.1131 -0.1906  0.1622
    1R01   Af32 3890   3.517   2.718   0.433  2.8663 -1.2070  0.2571
    1R01   Af33 3891   3.606   2.833   0.620  0.5018  0.1014  0.7520
    1R01   Af34 3892   3.606   2.748   0.682 -0.5815 -2.0205 -1.8375
    1R01   Af35 3893   3.516   2.899   0.638  3.3655 -1.4599  2.6514
    1R01   Af36 3894   3.628   3.106   0.485 -0.3755 -0.3226  0.1961
    1R01   Af37 3895   3.597   3.221   0.559 -0.2853  0.2268 -0.1067
    1R01   Af38 3896   3.665   3.265   0.628  0.5300  1.4757 -0.4591
    1R01   Af39 3897   3.240   3.255   0.466 -0.1742 -0.9033 -0.1544
    1R01   Af3a 3898   3.247   3.370   0.551 -0.4576 -0.4340 -0.1010
    1R01   Af3b 3899   3.132   3.444   0.580 -0.4320  0.4865  0.1836
    1R01   Af3c 3900   3.128   3.524   0.650 -1.4357 -1.7620  0.2501
    1R01   Af3d 3901   3.014   3.396   0.524 -0.9319 -0.4344  0.3341
    1R01   Af3e 3902   2.863   3.418   0.511  0.2982  0.4173  0.2910
    1R01   Af3f 3903   2.816   3.395   0.610 -3.0460 -1.5595 -0.4518
    1R01   Af40 3904   2.862   3.295   0.408 -0.0461 -0.0159  0.2467
    1R01   Af41 3905   2.804   3.209   0.439 -2.8311 -0.0175  1.9641
    1R01   Af42 3906   2.788   3.350   0.279 -0.3158 -0.2090 -0.1262
    1R01   Af43 3907   2.747   3.271   0.220 -0.6758  0.1431 -0.3323
    1R01   Af44 3908   2.872   3.470   0.214 -0.5293 -0.1882 -0.2530
    1R01   Af45 3909   2.832   3.493   0.118 -1.0199 -1.7314  0.8283
    1R01   Af46 3910   3.017   3.510   0.232 -0.5435  0.1146 -0.0206
    1R01   Af47 3911   2.989   3.622   0.305 -0.5074 -0.9279 -0.2483
    1R01   Af48 3912   3.081   3.719   0.338  0.4666 -0.0091  0.2477
    1R01   Af49 3913   3.037   3.847   0.418  0.4359  0.0550  0.4025
    1R01   Af4a 3914   2.949   3.901   0.378 -0.0556 -2.8039  0.1463
    1R01   Af4b 3915   3.123   3.921   0.420 -1.3651  0.1243  3.1745
    1R01   Af4c 3916   3.015   3.818   0.524  2.2202 -1.7956  1.4296
    1R01   Af4d 3917   3.207   3.694   0.278  0.1511  0.1334 -0.1898
    1R01   Af4e 3918   3.239   3.591   0.191 -0.1118  0.0331 -0.1834
    1R01   Af4f 3919   3.147   3.486   0.163  0.3675  0.2680 -0.0705
    1R01   Af50 3920   3.169   3.379   0.058  0.1185  0.3426  0.2901
    1R01   Af51 3921   3.091   3.371  -0.016  0.4362  1.6224 -0.3852
    1R01   Af52 3922   3.174   3.272   0.101 -2.4909 -1.8875 -0.7460
    1R01   Af53 3923   3.256   3.387   0.000 -1.5163  1.0384  0.4022
    1R01   Af54 3924   2.848   3.590   0.321 -0.3890 -0.2710  0.7809
    1R01   Af55 3925   2.784   3.668   0.283 -0.4154 -2.4027  1.4325
    1R01   Af56 3926   2.771   3.528   0.441  0.7308 -1.0758  0.4315
    1R01   Af57 3927   2.725   3.600   0.510 -1.0862 -1.9940 -1.3361
    1R01   Af58 3928   2.677   3.423   0.361  0.0583 -0.2475 -0.5613
    1R01   Af59 3929   2.613   3.362   0.424  1.1266  2.9771  1.5548
    1R01   Af5a 3930   2.614   3.486   0.296 -0.0418  2.0939  0.6803
    1R01   Af5b 3931   3.009   3.292   0.440  0.0338 -0.3636  0.5650
    1R01   Af5c 3932   3.119   3.211   0.406 -0.3354 -0.6910  0.2716
    1R01   Af5d 3933   3.103   3.122   0.354 -0.4084  0.1301  2.2027
    1R01   Af5e 3934  -2.399   0.869  -5.817 -0.5389 -0.1040  0.5874
    1R01   Af5f 3935  -2.365   0.941  -5.741 -3.0035 -0.4263  2.2753
    1R01   Af60 3936  -2.327   0.787  -5.811 -1.4108  2.0943  3.0705
    1R01   Af61 3937  -2.493   0.821  -5.783 -1.0159  1.7115 -1.2147
    1R01   Af62 3938  -2.422   0.932  -5.959 -0.0314  0.3264 -0.3615
    1R01   Af63 3939  -2.301   1.029  -5.987  0.3424  0.1412  0.2127
    1R01   Af64 3940  -2.209   0.992  -6.031  0.2196 -1.9959  0.4228
    1R01   Af65 3941  -2.263   1.079  -5.897  2.2683 -1.2933 -2.3198
    1R01   Af66 3942  -2.331   1.109  -6.057  2.6169 -0.6600  1.1633
    1R01   Af67 3943  -2.553   1.022  -5.970 -0.2841  0.4355 -0.3592
    1R01   Af68 3944  -2.643   0.956  -6.049 -0.5252  0.6689  0.2941
    1R01   Af69 3945  -2.765   1.017  -6.084 -0.2940  0.1991  0.6089
    1R01   Af6a 3946  -2.820   0.982  -6.172 -1.4527 -0.1577  2.3109
    1R01   Af6b 3947  -2.791   1.143  -6.025  0.3409  0.7973  0.0855
    1R01   Af6c 3948  -2.861   1.263  -6.087 -0.0537 -0.1206 -0.3449
    1R01   Af6d 3949  -2.959   1.288  -6.037  2.0228  0.3720  2.7520
    1R01   Af6e 3950  -2.737   1.345  -6.038  0.0322 -0.3139  0.8783
    1R01   Af6f 3951  -2.773   1.416  -5.960  1.7508 -0.0456  2.5638
    1R01   Af70 3952  -2.661   1.391  -6.171 -0.7982 -0.3779  0.5759
    1R01   Af71 3953  -2.561   1.424  -6.169 -3.7387 -0.5700 -0.1173
    1R01   Af72 3954  -2.752   1.505  -6.216 -0.1142  0.1919  0.5788
    1R01   Af73 3955  -2.769   1.575  -6.132 -1.1157  0.5278  0.1207
    1R01   Af74 3956  -2.891   1.434  -6.256 -1.0409  0.0002 -0.4357
    1R01   Af75 3957  -2.979   1.477  -6.203 -2.1292  0.7023 -1.4454
    1R01   Af76 3958  -2.868   1.279  -6.241  0.9066  0.2036 -0.1114
    1R01   Af77 3959  -2.944   1.215  -6.286 -1.7646 -0.4591 -2.1640
    1R01   Af78 3960  -2.712   1.276  -6.269  0.1617  0.2415  0.8897
    1R01   Af79 3961  -2.669   1.183  -6.241 -2.3015 -1.0747 -0.4237
    1R01   Af7a 3962  -2.701   1.299  -6.372  1.3731 -0.7673  2.6988
    1R01   Af7b 3963  -2.692   1.214  -5.965 -0.1550  0.2084  0.0248
    1R01   Af7c 3964  -2.569   1.155  -5.945  0.6579 -0.7934 -0.7704
    1R01   Af7d 3965  -2.490   1.221  -5.911 -0.0408  1.4253  1.1756
    1R01   Af7e 3966  -2.580   0.840  -6.108  0.4130 -0.3156  0.0495
    1R01   Af7f 3967  -2.442   0.830  -6.067 -0.3476 -0.0115 -0.8009
    1R01   Af80 3968  -2.345   0.754  -6.135  0.1234 -0.0811 -0.2133
    1R01   Af81 3969  -2.243   0.736  -6.097 -0.9805 -1.9537 -2.4584
    1R01   Af82 3970  -2.399   0.678  -6.233  0.4386 -0.3161  0.0193
    1R01   Af83 3971  -2.350   0.567  -6.335 -0.4007  0.2836 -0.0129
    1R01   Af84 3972  -2.289   0.616  -6.410 -2.5185 -2.7644 -0.9459
    1R01   Af85 3973  -2.496   0.567  -6.384 -0.1540 -0.0827 -0.3219
    1R01   Af86 3974  -2.517   0.614  -6.482  0.0725 -0.5445  1.2572
    1R01   Af87 3975  -2.538   0.420  -6.402  0.6709  0.0294  0.2184
    1R01   Af88 3976  -2.614   0.412  -6.476 -0.1123  0.5754  0.7215
    1R01   Af89 3977  -2.568   0.372  -6.254  0.4789  0.4115  0.0016
    1R01   Af8a 3978  -2.653   0.428  -6.214  0.0690  1.8495 -2.3866
    1R01   Af8b 3979  -2.573   0.223  -6.211 -0.6952 -0.1122  0.0467
    1R01   Af8c 3980  -2.450   0.229  -6.145  0.6193 -0.4886  1.2444
    1R01   Af8d 3981  -2.417   0.149  -6.035 -0.0264 -0.1535 -0.1375
    1R01   Af8e 3982  -2.320   0.203  -5.933 -0.9853  0.0656 -0.3805
    1R01   Af8f 3983  -2.360   0.174  -5.830 -0.2238 -1.6285 -0.4819
    1R01   Af90 3984  -2.218   0.150  -5.938  0.7948  0.9216 -0.4404
    1R01   Af91 3985  -2.309   0.313  -5.933 -1.9925 -0.3559  1.5643
    1R01   Af92 3986  -2.500   0.038  -6.011  0.2115  0.9090 -0.2544
    1R01   Af93 3987  -2.617   0.023  -6.086  0.0581 -1.1155 -0.1485
    1R01   Af94 3988  -2.666   0.125  -6.176 -0.3984 -0.3369  0.0859
    1R01   Af95 3989  -2.817   0.131  -6.225  0.0813 -0.4714 -0.0585
    1R01   Af96 3990  -2.859   0.035  -6.248 -0.5141 -0.6518 -0.3883
    1R01   Af97 3991  -2.871   0.180  -6.147 -3.0712  0.8092  1.9762
    1R01   Af98 3992  -2.826   0.199  -6.309 -1.2319 -0.1311  2.4428
    1R01   Af99 3993  -2.425   0.378  -6.188 -0.1571 -0.1725  0.0910
    1R01   Af9a 3994  -2.433   0.451  -6.107 -1.5096  2.5460 -0.7073
    1R01   Af9b 3995  -2.320   0.413  -6.307 -0.0238  0.2033  0.6939
    1R01   Af9c 3996  -2.220   0.384  -6.289 -1.0589  0.9488  0.9580
    1R01   Af9d 3997  -2.403   0.351  -6.427 -0.6998  0.5205 -0.4716
    1R01   Af9e 3998  -2.372   0.380  -6.527 -0.2556 -4.1117  1.7983
    1R01   Af9f 3999  -2.416   0.239  -6.424  0.7789  2.5446  0.3708
    1R01   Afa0 4000  -2.523   0.674  -6.274 -0.3744 -0.8168 -0.1717
    1R01   Afa1 4001  -2.628   0.753  -6.215 -0.0699 -0.1009  0.5463
    1R01   Afa2 4002  -2.729   0.748  -6.252 -0.4597 -1.8428 -1.7871
    1R01   Afa3 4003   0.744   4.591   1.991  0.7130  0.1717 -0.4129
    1R01   Afa4 4004   0.715   4.493   1.950  2.8745 -2.4532  1.0383
    1R01   Afa5 4005   0.667   4.610   2.066  0.3215 -1.1349  0.4375
    1R01   Afa6 4006   0.836   4.570   2.047 -0.7244  2.0126  0.9512
    1R01   Afa7 4007   0.775   4.709   1.884 -0.6044  1.0203 -0.1514
    1R01   Afa8 4008   0.693   4.833   1.939  0.0571 -0.5799  0.1189
    1R01   Afa9 4009   0.704   4.845   2.051  0.0952 -0.0147  0.2381
    1R01   Afaa 4010   0.583   4.825   1.920 -1.9448 -0.6757 -2.2397
    1R01   Afab 4011   0.719   4.929   1.900 -3.8739 -2.0384  0.1745
    1R01   Afac 4012   0.729   4.684   1.734  0.4177  0.0785 -0.3395
    1R01   Afad 4013   0.828   4.733   1.641  0.4326 -0.6108  0.5637
    1R01   Afae 4014   0.821   4.706   1.498  0.0537 -0.2979 -0.4125
    1R01   Afaf 4015   0.914   4.711   1.438 -0.8479 -1.6287  1.5980
    1R01   Afb0 4016   0.700   4.632   1.458  0.2340 -0.1879 -0.5682
    1R01   Afb1 4017   0.653   4.534   1.351  0.2568  0.2176  0.5389
    1R01   Afb2 4018   0.739   4.471   1.309  1.1650  0.8097 -2.7194
    1R01   Afb3 4019   0.570   4.464   1.466 -0.1065  0.0826  0.8505
    1R01   Afb4 4020   0.607   4.371   1.502 -1.0987 -3.3385 -2.6674
    1R01   Afb5 4021   0.419   4.462   1.415  0.4131 -0.1026 -0.9167
    1R01   Afb6 4022   0.331   4.438   1.487 -2.4315 -0.5646 -0.8213
    1R01   Afb7 4023   0.428   4.370   1.289  0.4371 -0.6586 -0.7194
    1R01   Afb8 4024   0.468   4.272   1.325 -0.6729 -0.4107  0.0098
    1R01   Afb9 4025   0.507   4.449   1.181  0.1568 -0.5748  0.1603
    1R01   Afba 4026   0.591   4.404   1.135 -0.2125  1.0946 -2.2966
    1R01   Afbb 4027   0.541   4.581   1.246 -0.0489  0.7466 -0.3218
    1R01   Afbc 4028   0.574   4.651   1.175 -0.7780 -0.8601  1.9824
    1R01   Afbd 4029   0.413   4.596   1.337  0.0241 -0.6007  0.0758
    1R01   Afbe 4030   0.325   4.608   1.273  0.8816  1.7996 -0.6949
    1R01   Afbf 4031   0.409   4.688   1.398 -0.7483 -1.0324  3.7346
    1R01   Afc0 4032   0.621   4.577   1.551 -0.3333  1.3954 -0.5144
    1R01   Afc1 4033   0.619   4.610   1.688 -0.4019 -0.1381 -0.0776
    1R01   Afc2 4034   0.553   4.564   1.758  0.4233  0.9365 -1.1290
    1R01   Afc3 4035   0.943   4.766   1.717 -0.2745 -0.6960 -0.2504
    1R01   Afc4 4036   0.925   4.741   1.859  0.1859 -0.2347 -0.7558
    1R01   Afc5 4037   1.034   4.761   1.955 -0.2267  0.3192  0.2854
    1R01   Afc6 4038   1.028   4.739   2.068 -2.4604  0.9633  1.2156
    1R01   Afc7 4039   1.146   4.808   1.894  0.1985 -0.3287  0.3547
    1R01   Afc8 4040   1.273   4.874   1.932 -0.1743  0.8875 -0.1594
    1R01   Afc9 4041   1.259   4.968   1.985  2.4296  0.6397 -0.4742
    1R01   Afca 4042   1.290   4.902   1.779  0.3319  0.3407 -0.9371
    1R01   Afcb 4043   1.277   5.008   1.746  0.2114 -0.1267 -1.7339
    1R01   Afcc 4044   1.433   4.844   1.747  0.5601 -0.0488 -0.0654
    1R01   Afcd 4045   1.476   4.880   1.656 -0.8144  1.3659  1.9146
    1R01   Afce 4046   1.435   4.690   1.778  0.9293 -1.2137  0.4406
    1R01   Afcf 4047   1.536   4.656   1.762  0.6781 -1.8631  0.8747
    1R01   Afd0 4048   1.323   4.597   1.763 -0.6625 -0.3435 -0.0195
    1R01   Afd1 4049   1.308   4.578   1.892 -0.8716  0.8560 -0.2946
    1R01   Afd2 4050   1.223   4.487   1.948  0.3474  0.3754 -0.2008
    1R01   Afd3 4051   1.225   4.462   2.097 -0.6242 -0.4779  0.5710
    1R01   Afd4 4052   1.267   4.547   2.147  0.2783 -0.0062 -0.0513
    1R01   Afd5 4053   1.130   4.436   2.143  2.0862 -0.7600 -0.1734
    1R01   Afd6 4054   1.295   4.384   2.117 -0.2071  0.1837  0.4654
    1R01   Afd7 4055   1.132   4.427   1.863 -0.1072 -0.2213 -0.4509
    1R01   Afd8 4056   1.138   4.460   1.728 -0.1279 -0.2781 -0.1196
    1R01   Afd9 4057   1.238   4.537   1.668 -0.2431  0.0718 -0.1743
    1R01   Afda 4058   1.232   4.553   1.516 -0.2644 -0.2989 -0.0079
    1R01   Afdb 4059   1.248   4.457   1.468 -1.0029 -0.3961  0.1435
    1R01   Afdc 4060   1.128   4.580   1.495 -1.5134  1.1410  0.8634
    1R01   Afdd 4061   1.305   4.614   1.464 -1.3725 -1.5316 -0.3370
    1R01   Afde 4062   1.409   4.679   1.939  0.4597 -0.1194 -0.2741
    1R01   Afdf 4063   1.495   4.629   1.976 -2.2639 -2.1718  0.3214
    1R01   Afe0 4064   1.404   4.820   1.992  0.0228  0.3711 -0.0729
    1R01   Afe1 4065   1.417   4.851   2.096 -0.2688  0.8866 -0.9132
    1R01   Afe2 4066   1.500   4.876   1.884  0.0988 -0.6081  0.1014
    1R01   Afe3 4067   1.603   4.834   1.898  1.0393 -0.8060 -2.8324
    1R01   Afe4 4068   1.521   4.985   1.897 -0.4685  2.0347 -0.4670
    1R01   Afe5 4069   1.159   4.833   1.759  0.5292  0.2605  0.3072
    1R01   Afe6 4070   1.063   4.813   1.660 -0.4831  0.6994 -0.6123
    1R01   Afe7 4071   1.073   4.848   1.554 -2.1184  0.3887 -0.6259
    1R01   Afe8 4072   3.562   3.583   1.613  0.6428 -0.0375 -0.0046
    1R01   Afe9 4073   3.646   3.625   1.671  0.9447  1.9950 -1.8217
    1R01   Afea 4074   3.510   3.658   1.556 -0.0532  0.3500  0.1416
    1R01   Afeb 4075   3.483   3.530   1.671  0.0389 -0.4973 -2.4499
    1R01   Afec 4076   3.625   3.489   1.509  0.7260  0.0784  0.8366
    1R01   Afed 4077   3.510   3.415   1.439  0.5661  0.4514  0.7097
    1R01   Afee 4078   3.552   3.333   1.380  2.0792 -0.9826  1.4302
    1R01   Afef 4079   3.457   3.489   1.374  1.2545 -0.1764 -0.4719
    1R01   Aff0 4080   3.442   3.366   1.508 -2.0229 -1.9663  0.0003
    1R01   Aff1 4081   3.716   3.397   1.586 -0.1325  0.0467 -0.1205
    1R01   Aff2 4082   3.844   3.395   1.516 -0.3274 -0.5100 -0.1112
    1R01   Aff3 4083   3.963   3.369   1.592 -0.1800 -0.1099 -0.0021
    1R01   Aff4 4084   4.062   3.400   1.553  1.6609 -0.8864  1.1967
    1R01   Aff5 4085   3.934   3.355   1.732 -1.1509 -0.8276  0.6077
    1R01   Aff6 4086   3.992   3.423   1.857  0.3601 -0.1483 -0.4088
    1R01   Aff7 4087   4.017   3.526   1.830 -0.1735  1.0746  0.1184
    1R01   Aff8 4088   3.846   3.401   1.916 -0.3041 -0.3772  0.0603
    1R01   Aff9 4089   3.790   3.500   1.934 -3.1295 -2.0896 -2.0389
    1R01   Affa 4090   3.862   3.314   2.047 -0.2860 -0.3096  0.1113
    1R01   Affb 4091   3.777   3.251   2.076 -0.9192  1.9633 -1.2947
    1R01   Affc 4092   3.912   3.433   2.131 -0.2460 -0.6104 -0.4569
    1R01   Affd 4093   3.849   3.528   2.131 -0.5235  0.2887 -0.6887
    1R01   Affe 4094   4.061   3.462   2.079  0.0241  0.4477 -0.2102
    1R01   Afff 4095   4.087   3.568   2.051 -1.4703 -1.4895  1.3804
    1R01  A1000 4096   4.092   3.366   1.962  0.3888 -0.0225  0.0625
    1R01  A1001 4097   4.192   3.354   1.948 -2.4123  1.5104  1.8720
    1R01  A1002 4098   4.009   3.240   2.007  0.0683  0.4343  0.0884
    1R01  A1003 4099   4.051   3.185   2.091  0.5087 -0.4142 -0.9332
    1R01  A1004 4100   3.976   3.156   1.931 -2.8103 -0.4499 -0.1048
    1R01  A1005 4101   3.808   3.343   1.786 -0.7817 -0.6091 -0.4700
    1R01  A1006 4102   3.692   3.350   1.717 -0.5098  0.7088 -0.8385
    1R01  A1007 4103   3.600   3.361   1.760 -1.9796  0.1142 -2.9757
    1R01  A1008 4104   3.828   3.475   1.393  0.4871  0.1985  0.4146
    1R01  A1009 4105   3.720   3.564   1.408 -0.8754 -0.1775 -0.3657
    1R01  A100a 4106   3.743   3.697   1.386  0.5861 -0.2590 -0.3338
    1R01  A100b 4107   3.694   3.779   1.428 -2.1483 -0.7210  0.2845
    1R01  A100c 4108   3.847   3.730   1.291  1.1312  0.0948 -0.1318
    1R01  A100d 4109   3.954   3.829   1.284 -0.3124 -1.0171 -0.6829
    1R01  A100e 4110   4.001   3.842   1.379 -0.4619 -1.5711  1.3421
    1R01  A100f 4111   4.027   3.740   1.183 -1.0802 -0.1035  0.0994
    1R01  A1010 4112   4.121   3.707   1.222  0.6239  3.0131 -1.5238
    1R01  A1011 4113   4.046   3.829   1.052  0.1502  0.4226  0.2884
    1R01  A1012 4114   4.050   3.778   0.958 -0.3367  2.5505  0.6786
    1R01  A1013 4115   4.158   3.924   1.076 -0.5426  1.1246  0.6156
    1R01  A1014 4116   4.180   3.992   0.994  0.1062  0.0896  0.7309
    1R01  A1015 4117   4.286   3.889   1.143  0.2963  0.8824  0.1874
    1R01  A1016 4118   4.241   3.941   1.262 -0.1793 -0.5571  0.4622
    1R01  A1017 4119   4.287   3.904   1.390  0.2287 -0.6894  0.2990
    1R01  A1018 4120   4.228   3.944   1.526 -0.2858 -0.7394 -0.5301
    1R01  A1019 4121   4.174   3.864   1.573 -2.5212  0.6061  0.4661
    1R01  A101a 4122   4.160   4.030   1.514 -0.8612 -1.2879  0.2403
    1R01  A101b 4123   4.299   3.979   1.598  1.3766 -1.2799 -1.7601
    1R01  A101c 4124   4.383   3.805   1.371 -0.5532  0.1987 -0.4762
    1R01  A101d 4125   4.450   3.769   1.251 -0.7831 -0.1493 -0.2455
    1R01  A101e 4126   4.391   3.800   1.127 -0.0816 -0.4035 -0.2265
    1R01  A101f 4127   4.396   3.715   1.006  0.3949  0.8107 -0.0169
    1R01  A1020 4128   4.345   3.620   1.011  1.0607  0.0414 -2.5707
    1R01  A1021 4129   4.495   3.687   0.973 -1.0855 -1.2913 -0.6127
    1R01  A1022 4130   4.352   3.771   0.922 -3.2392 -2.3822  0.4730
    1R01  A1023 4131   4.114   4.001   1.210  0.4792  0.5855  1.3176
    1R01  A1024 4132   4.131   4.114   1.203 -0.8507  2.0173  1.5990
    1R01  A1025 4133   3.960   3.975   1.227  0.1204 -0.5856  0.3150
    1R01  A1026 4134   3.904   4.054   1.272 -0.3201  1.9090  1.9041
    1R01  A1027 4135   3.930   3.934   1.078 -0.1123  0.2733  0.7527
    1R01  A1028 4136   3.929   4.020   1.006 -1.1559  0.7718  0.3130
    1R01  A1029 4137   3.829   3.888   1.070 -2.9260  0.0517 -1.8553
    1R01  A102a 4138   3.922   3.637   1.222 -0.3464 -0.3712 -0.0242
    1R01  A102b 4139   3.931   3.515   1.298 -0.1967  0.0376 -0.5589
    1R01  A102c 4140   4.020   3.454   1.296  0.4767  0.1618 -0.5487
    1R01  A102d 4141   2.483   6.149   1.853  0.1423  0.4271  0.3022
    1R01  A102e 4142   2.429   6.239   1.819 -0.6234 -2.2722  1.2936
    1R01  A102f 4143   2.407   6.069   1.864  1.8307 -2.6903 -3.0843
    1R01  A1030 4144   2.513   6.176   1.957  1.6095  2.1550  0.6781
    1R01  A1031 4145   2.596   6.110   1.762 -1.0910 -0.3253  0.1251
    1R01  A1032 4146   2.531   6.093   1.629  0.3014  0.6330 -0.2967
    1R01  A1033 4147   2.454   6.018   1.633 -1.3289  1.5424  0.7636
    1R01  A1034 4148   2.592   6.066   1.542 -0.8773 -1.8923  2.0735
    1R01  A1035 4149   2.478   6.186   1.608 -0.6882 -1.3176  1.6871
    1R01  A1036 4150   2.672   5.986   1.821 -0.7285  0.3769 -0.0321
    1R01  A1037 4151   2.807   6.029   1.858  0.3775  1.0532  0.2588
    1R01  A1038 4152   2.901   5.933   1.884  0.4138 -0.6601  0.0129
    1R01  A1039 4153   3.004   5.960   1.884  0.7337  0.9314  0.2953
    1R01  A103a 4154   2.858   5.800   1.882  0.1343 -0.1435 -0.0778
    1R01  A103b 4155   2.917   5.675   1.828  0.0120 -0.1079 -0.0324
    1R01  A103c 4156   2.980   5.630   1.900 -2.3743  1.3270  1.1801
    1R01  A103d 4157   2.768   5.623   1.819  0.4045  0.3803 -0.1610
    1R01  A103e 4158   2.740   5.544   1.891  1.4985 -0.4114 -0.3663
    1R01  A103f 4159   2.752   5.563   1.670 -0.5571 -0.1366  0.6053
    1R01  A1040 4160   2.652   5.555   1.618 -0.1501  0.2219  0.1303
    1R01  A1041 4161   2.849   5.442   1.662  0.0106 -0.0405 -0.3477
    1R01  A1042 4162   2.835   5.386   1.564 -1.2126 -1.2097 -3.8041
    1R01  A1043 4163   2.992   5.497   1.679  0.0262 -0.2739  0.6332
    1R01  A1044 4164   3.053   5.469   1.594  1.9723  0.6051  0.3695
    1R01  A1045 4165   2.978   5.649   1.683 -0.3828  0.6622 -0.7787
    1R01  A1046 4166   3.055   5.711   1.655 -2.6249 -0.5184 -0.1665
    1R01  A1047 4167   2.839   5.676   1.602 -0.7356 -0.4689  0.5997
    1R01  A1048 4168   2.859   5.660   1.498 -1.5974  1.3559  0.5270
    1R01  A1049 4169   2.793   5.773   1.619 -1.5447 -0.9524  1.4241
    1R01  A104a 4170   2.729   5.761   1.860  0.5451 -0.3354 -0.2219
    1R01  A104b 4171   2.629   5.856   1.819  0.6112  0.2095 -0.1151
    1R01  A104c 4172   2.534   5.833   1.776  3.7911  1.0719 -2.6774
    1R01  A104d 4173   2.827   6.167   1.813 -0.3803  0.2571 -0.3937
    1R01  A104e 4174   2.709   6.217   1.750  0.0478 -0.1944  0.0262
    1R01  A104f 4175   2.720   6.324   1.651 -0.6227  0.3804  0.3048
    1R01  A1050 4176   2.640   6.338   1.582  0.7862  1.1925 -0.7323
    1R01  A1051 4177   2.845   6.392   1.642  0.2252 -0.3618  0.0086
    1R01  A1052 4178   2.929   6.460   1.526 -0.3271  0.6801  0.7374
    1R01  A1053 4179   2.893   6.407   1.431 -0.3136 -1.6775 -1.0428
    1R01  A1054 4180   3.052   6.401   1.605  0.1626  0.3205  0.2701
    1R01  A1055 4181   3.095   6.321   1.544  1.7007 -1.5138 -1.0045
    1R01  A1056 4182   3.157   6.521   1.607  0.3264  0.6353 -0.2636
    1R01  A1057 4183   3.264   6.500   1.622  2.2054 -1.1205 -0.6445
    1R01  A1058 4184   3.093   6.629   1.699 -0.0826  0.5994 -1.0857
    1R01  A1059 4185   3.175   6.699   1.725  0.3607 -1.1348 -0.8204
    1R01  A105a 4186   3.001   6.617   1.820  0.0607  0.6156  0.3444
    1R01  A105b 4187   2.887   6.658   1.752  0.2604 -0.0952  0.4804
    1R01  A105c 4188   2.758   6.627   1.792 -0.4791 -0.9792  0.0726
    1R01  A105d 4189   2.626   6.646   1.714  0.2311 -0.7246 -0.4564
    1R01  A105e 4190   2.571   6.549   1.700 -0.2879 -1.1269 -0.7846
    1R01  A105f 4191   2.565   6.711   1.777  0.1722  0.1741 -0.4625
    1R01  A1060 4192   2.644   6.692   1.617  0.2503  1.1590  1.9371
    1R01  A1061 4193   2.759   6.577   1.924  0.5346  0.1839 -0.5261
    1R01  A1062 4194   2.869   6.558   2.001  0.8060 -0.0700  0.1323
    1R01  A1063 4195   3.001   6.551   1.947 -0.2872  0.0678  0.7902
    1R01  A1064 4196   3.128   6.478   1.998  0.6597  0.2040 -0.6593
    1R01  A1065 4197   3.108   6.374   1.993  2.7149  2.5759 -2.0981
    1R01  A1066 4198   3.141   6.510   2.103  1.4001  0.5356 -0.9151
    1R01  A1067 4199   3.218   6.500   1.940 -0.1707 -2.5698 -0.4128
    1R01  A1068 4200   2.964   6.685   1.630  0.0349  0.0597  0.2673
    1R01  A1069 4201   2.981   6.795   1.616  1.4466 -0.4545  0.5501
    1R01  A106a 4202   2.959   6.608   1.495  0.3437 -0.8449 -0.2976
    1R01  A106b 4203   2.894   6.650   1.424 -1.2636 -0.9619  1.0166
    1R01  A106c 4204   3.113   6.588   1.466 -0.1850  0.0750 -0.6164
    1R01  A106d 4205   3.139   6.527   1.376 -2.6900 -1.2423 -2.6869
    1R01  A106e 4206   3.154   6.692   1.458  0.6499  0.4366  1.1880
    1R01  A106f 4207   2.956   6.341   1.708  0.3903 -0.1859 -0.0876
    1R01  A1070 4208   2.956   6.223   1.782  0.6648  0.2758 -0.3167
    1R01  A1071 4209   3.049   6.178   1.807  0.6984  1.6608 -1.3193
    1R01  A1072 4210   0.893   3.305   3.032  0.4924 -0.1839 -0.3367
    1R01  A1073 4211   0.993   3.279   3.077 -0.1386 -2.3019  0.6471
    1R01  A1074 4212   0.831   3.215   3.040 -1.9385  0.6050 -1.2484
    1R01  A1075 4213   0.899   3.326   2.928 -1.6382 -0.7026 -1.4339
    1R01  A1076 4214   0.817   3.422   3.097  0.2195 -0.2244 -0.0860
    1R01  A1077 4215   0.905   3.547   3.074  0.4476  1.1215 -0.5496
    1R01  A1078 4216   0.929   3.561   2.970 -1.2728  1.7577  0.8053
    1R01  A1079 4217   1.010   3.545   3.122 -0.4764 -0.7547 -0.8224
    1R01  A107a 4218   0.857   3.639   3.111 -0.6048  0.2543 -0.2229
    1R01  A107b 4219   0.778   3.390   3.243 -0.2925 -0.3005 -0.1516
    1R01  A107c 4220   0.645   3.427   3.257 -0.5928 -0.6127  0.1073
    1R01  A107d 4221   0.578   3.406   3.375 -0.7220  0.0735  0.4270
    1R01  A107e 4222   0.478   3.438   3.379  0.2129 -0.7003 -0.0169
    1R01  A107f 4223   0.650   3.355   3.482 -0.1464  0.0084 -0.1801
    1R01  A1080 4224   0.626   3.286   3.616 -0.0099  0.2638  0.2466
    1R01  A1081 4225   0.561   3.205   3.606  1.0191  1.3275  2.3977
    1R01  A1082 4226   0.789   3.259   3.605 -0.3026 -0.2086 -0.5933
    1R01  A1083 4227   0.830   3.154   3.587 -0.0107 -3.9023 -2.6542
    1R01  A1084 4228   0.836   3.323   3.734  0.1007  0.0861 -0.5597
    1R01  A1085 4229   0.940   3.345   3.745  0.2740 -1.7878 -0.9275
    1R01  A1086 4230   0.794   3.218   3.836 -0.0707 -0.6719  0.8082
    1R01  A1087 4231   0.852   3.217   3.929  1.5599  1.8136  1.4277
    1R01  A1088 4232   0.642   3.224   3.848  0.9389 -0.1425 -0.0327
    1R01  A1089 4233   0.594   3.215   3.945  1.5017 -1.2114  0.1019
    1R01  A108a 4234   0.603   3.344   3.758  0.1835 -0.3792  0.1504
    1R01  A108b 4235   0.503   3.394   3.770 -1.4578 -0.8492 -0.0959
    1R01  A108c 4236   0.728   3.439   3.766  0.4114  0.3452  0.8042
    1R01  A108d 4237   0.730   3.484   3.869  0.9383  0.5949  1.3957
    1R01  A108e 4238   0.727   3.523   3.694  1.6949 -0.1301  0.0710
    1R01  A108f 4239   0.786   3.334   3.473  0.3100 -0.4653  0.2461
    1R01  A1090 4240   0.853   3.334   3.348 -0.0673  0.0119 -0.7728
    1R01  A1091 4241   0.958   3.304   3.333  1.8456  0.0414 -0.5159
    1R01  A1092 4242   0.588   3.474   3.129  0.4188 -0.0848 -0.3357
    1R01  A1093 4243   0.687   3.454   3.023  0.1318  0.1538 -0.3229
    1R01  A1094 4244   0.668   3.490   2.885 -0.4398 -0.2582 -0.5772
    1R01  A1095 4245   0.749   3.499   2.812 -0.7440  0.4851  3.1712
    1R01  A1096 4246   0.532   3.520   2.867 -0.4003  0.1279  0.1770
    1R01  A1097 4247   0.455   3.589   2.762 -0.1102  0.6140  0.4685
    1R01  A1098 4248   0.505   3.681   2.750 -0.2638 -0.4170  2.0176
    1R01  A1099 4249   0.336   3.599   2.864 -0.4269  0.5470 -0.2922
    1R01  A109a 4250   0.320   3.705   2.900  0.6650 -0.5065  1.0265
    1R01  A109b 4251   0.215   3.550   2.789  0.2594 -0.4545  0.1118
    1R01  A109c 4252   0.116   3.583   2.817 -2.1958  1.2596 -1.1666
    1R01  A109d 4253   0.234   3.401   2.752 -0.1865 -0.2043  0.0736
    1R01  A109e 4254   0.145   3.359   2.708 -0.1770 -0.3860  0.5323
    1R01  A109f 4255   0.309   3.292   2.832  0.4468  0.3788 -0.6150
    1R01  A10a0 4256   0.419   3.293   2.754 -0.6449  0.4856 -0.0959
    1R01  A10a1 4257   0.517   3.198   2.763 -0.0051 -0.0003 -0.0868
    1R01  A10a2 4258   0.610   3.163   2.651 -0.2141 -0.1501  0.4549
    1R01  A10a3 4259   0.684   3.089   2.679  1.1224  1.0851 -1.3784
    1R01  A10a4 4260   0.658   3.255   2.625  0.4530  1.4134  1.0215
    1R01  A10a5 4261   0.544   3.123   2.569 -1.8247  0.3373 -0.1575
    1R01  A10a6 4262   0.498   3.112   2.874 -0.5328  0.0600 -0.0127
    1R01  A10a7 4263   0.394   3.119   2.962 -0.6688 -0.3434 -0.3254
    1R01  A10a8 4264   0.285   3.206   2.938 -0.5140  0.3838  0.6836
    1R01  A10a9 4265   0.167   3.217   3.031  0.1648 -0.3550  0.1041
    1R01  A10aa 4266   0.199   3.265   3.119 -0.6245  0.7104  1.0269
    1R01  A10ab 4267   0.129   3.118   3.068  0.1026  0.3695  0.3189
    1R01  A10ac 4268   0.079   3.262   2.982 -1.5148 -0.7693 -1.9024
    1R01  A10ad 4269   0.360   3.389   2.656 -0.6211  0.1893 -0.0093
    1R01  A10ae 4270   0.332   3.340   2.562 -0.1363 -0.1728 -1.9530
    1R01  A10af 4271   0.396   3.540   2.627 -0.0391  1.2003 -0.3054
    1R01  A10b0 4272   0.440   3.566   2.522  1.6597  2.2199 -0.8513
    1R01  A10b1 4273   0.253   3.605   2.645  0.5212  0.8450  0.4490
    1R01  A10b2 4274   0.170   3.571   2.579 -1.8623  0.3141 -1.6941
    1R01  A10b3 4275   0.254   3.717   2.635  2.1200  2.5844 -0.1663
    1R01  A10b4 4276   0.430   3.525   2.959 -0.2113 -0.1688  0.6593
    1R01  A10b5 4277   0.454   3.513   3.096  0.2750 -0.2863  0.0286
    1R01  A10b6 4278   0.372   3.536   3.165 -1.1410 -1.2064 -2.4776
    1R01  A10b7 4279  -3.138   2.507  -6.937  0.6643 -0.6422  0.5091
    1R01  A10b8 4280  -3.128   2.432  -6.857  0.9503 -0.1813  0.4489
    1R01  A10b9 4281  -3.165   2.599  -6.889  1.8555 -0.7769  5.4339
    1R01  A10ba 4282  -3.225   2.481  -7.002 -0.8980  0.8059 -1.2890
    1R01  A10bb 4283  -3.007   2.510  -7.020  1.0030 -0.7539  0.5428
    1R01  A10bc 4284  -2.993   2.379  -7.095  1.0096  0.0503 -0.2272
    1R01  A10bd 4285  -3.079   2.357  -7.156 -1.0122 -1.8039  1.1471
    1R01  A10be 4286  -2.901   2.377  -7.155  2.0606 -3.3030  0.3593
    1R01  A10bf 4287  -2.986   2.296  -7.023  0.3023 -0.0358  1.6916
    1R01  A10c0 4288  -2.885   2.525  -6.930  0.0289 -0.4868  0.8904
    1R01  A10c1 4289  -2.828   2.643  -6.963  0.4086  0.4652  0.0290
    1R01  A10c2 4290  -2.693   2.668  -6.928  0.0724 -0.4599 -0.0202
    1R01  A10c3 4291  -2.649   2.760  -6.958 -1.7111  2.6301  2.7968
    1R01  A10c4 4292  -2.635   2.587  -6.824  0.1091 -0.5459 -0.5681
    1R01  A10c5 4293  -2.496   2.530  -6.810 -0.0135  0.1069  0.3005
    1R01  A10c6 4294  -2.435   2.593  -6.737  0.3653  0.2728  0.6135
    1R01  A10c7 4295  -2.568   2.400  -6.761  0.4001  0.1607 -0.7361
    1R01  A10c8 4296  -2.554   2.378  -6.652 -0.1894 -0.4115  0.9012
    1R01  A10c9 4297  -2.511   2.277  -6.847 -0.6453  0.1427 -1.0753
    1R01  A10ca 4298  -2.566   2.185  -6.869  2.2840 -1.3284 -0.0105
    1R01  A10cb 4299  -2.360   2.272  -6.809 -0.1949  0.1846 -0.0496
    1R01  A10cc 4300  -2.332   2.249  -6.706 -1.1022 -0.2311 -2.0538
    1R01  A10cd 4301  -2.304   2.409  -6.869  0.1802  0.7120  0.4019
    1R01  A10ce 4302  -2.240   2.469  -6.808 -0.8840  1.7005  1.7449
    1R01  A10cf 4303  -2.419   2.486  -6.936  0.2327  0.5866  0.6573
    1R01  A10d0 4304  -2.385   2.557  -7.004  1.2679 -1.1143  2.8059
    1R01  A10d1 4305  -2.501   2.361  -6.981  0.9988 -0.3526 -0.5126
    1R01  A10d2 4306  -2.450   2.308  -7.058 -0.5852 -0.1550  0.0119
    1R01  A10d3 4307  -2.602   2.384  -7.021  1.5106  1.8469 -2.2648
    1R01  A10d4 4308  -2.701   2.472  -6.793 -1.2017 -0.1295 -0.7851
    1R01  A10d5 4309  -2.824   2.430  -6.845  0.5398  0.2671 -0.8230
    1R01  A10d6 4310  -2.856   2.327  -6.850  0.4037  0.7526 -0.5926
    1R01  A10d7 4311  -2.909   2.718  -7.054  0.2462 -0.5746 -0.1314
    1R01  A10d8 4312  -3.007   2.634  -7.115 -0.2896  0.3309 -0.5032
    1R01  A10d9 4313  -3.076   2.665  -7.231 -0.6070  0.1649  0.3572
    1R01  A10da 4314  -3.130   2.587  -7.287  0.9462 -1.3328 -1.2179
    1R01  A10db 4315  -3.054   2.799  -7.276  0.1611  0.2580 -0.0706
    1R01  A10dc 4316  -3.081   2.887  -7.393  0.2672  0.7805  0.1877
    1R01  A10dd 4317  -3.046   2.846  -7.489  2.3889 -0.5750  0.6402
    1R01  A10de 4318  -2.985   2.992  -7.326 -0.7190 -0.6634  0.5634
    1R01  A10df 4319  -2.890   2.998  -7.381  1.0083  0.1981  0.0661
    1R01  A10e0 4320  -3.059   3.131  -7.320 -0.4207  0.2534  0.4511
    1R01  A10e1 4321  -3.016   3.232  -7.307 -0.3966 -2.8962  0.8028
    1R01  A10e2 4322  -3.177   3.110  -7.226  0.4758  0.1617 -0.2704
    1R01  A10e3 4323  -3.217   3.203  -7.194  0.8598 -0.4238  1.6051
    1R01  A10e4 4324  -3.204   3.011  -7.108  0.0625 -0.0820 -0.8257
    1R01  A10e5 4325  -3.302   2.947  -7.175  0.1860 -0.1321 -0.0231
    1R01  A10e6 4326  -3.370   2.842  -7.115  0.2606  0.4006  0.4432
    1R01  A10e7 4327  -3.483   2.775  -7.186  0.5713 -0.8489  0.3043
    1R01  A10e8 4328  -3.492   2.668  -7.173  0.7818  0.0377 -0.3413
    1R01  A10e9 4329  -3.483   2.787  -7.296 -0.1612  2.0287 -0.9293
    1R01  A10ea 4330  -3.565   2.818  -7.139  2.5290  1.6441  1.9034
    1R01  A10eb 4331  -3.338   2.832  -6.977 -0.4262 -0.2733  0.5178
    1R01  A10ec 4332  -3.243   2.903  -6.912  0.1130  0.0833 -0.0630
    1R01  A10ed 4333  -3.169   3.000  -6.973  0.0848  0.1095  0.1114
    1R01  A10ee 4334  -3.091   3.099  -6.901 -0.0495  0.3336  0.6996
    1R01  A10ef 4335  -3.030   3.151  -6.978 -1.1187 -1.9795 -0.7877
    1R01  A10f0 4336  -3.040   3.050  -6.818 -1.1730 -0.7631  1.8204
    1R01  A10f1 4337  -3.153   3.178  -6.857 -0.5987  1.4994  1.5738
    1R01  A10f2 4338  -3.282   3.025  -7.305  0.5204 -0.1647  0.4100
    1R01  A10f3 4339  -3.365   3.093  -7.328  0.2372  0.4372 -0.7571
    1R01  A10f4 4340  -3.213   2.973  -7.428 -0.2008 -0.1347 -0.9124
    1R01  A10f5 4341  -3.274   2.929  -7.509  0.8192 -2.5352  1.5229
    1R01  A10f6 4342  -3.138   3.111  -7.455 -0.8036 -0.2915  0.1084
    1R01  A10f7 4343  -3.066   3.107  -7.533 -0.3058 -1.6427 -0.0652
    1R01  A10f8 4344  -3.201   3.199  -7.463 -0.3432  2.1167  2.3911
    1R01  A10f9 4345  -2.968   2.884  -7.215  0.2467  0.2616  0.0876
    1R01  A10fa 4346  -2.887   2.850  -7.106  0.3022  0.8936  0.2248
    1R01  A10fb 4347  -2.815   2.911  -7.065  0.1308  0.5959  0.6522
    1R01  A10fc 4348   3.764   3.172   1.126  0.2633  0.6087  0.6297
    1R01  A10fd 4349   3.764   3.190   1.231 -0.7380  2.1229 -3.1574
    1R01  A10fe 4350   3.834   3.096   1.105  1.2023 -2.3041  3.8193
    1R01  A10ff 4351   3.809   3.263   1.075  1.7870  2.9530 -0.6481
    1R01  A1100 4352   3.620   3.149   1.070 -0.4649 -0.5795 -0.3412
    1R01  A1101 4353   3.635   3.106   0.928 -0.1988 -0.2789  0.6243
    1R01  A1102 4354   3.688   3.014   0.915  0.4462 -1.3844 -1.6051
    1R01  A1103 4355   3.537   3.089   0.873 -1.6308 -2.9527  1.2363
    1R01  A1104 4356   3.692   3.180   0.871 -0.3503  0.7000  0.9933
    1R01  A1105 4357   3.542   3.281   1.076 -0.0916 -0.8711  0.2597
    1R01  A1106 4358   3.423   3.261   1.145  1.0012  0.1168  0.2431
    1R01  A1107 4359   3.326   3.364   1.166 -0.1069 -0.3754 -0.0074
    1R01  A1108 4360   3.249   3.355   1.247 -1.3237  0.7163  1.7351
    1R01  A1109 4361   3.370   3.492   1.114 -0.4731 -0.4077 -0.6124
    1R01  A110a 4362   3.357   3.643   1.143  0.1496 -0.2880 -0.0287
    1R01  A110b 4363   3.333   3.657   1.248  2.1614  0.8680  0.0569
    1R01  A110c 4364   3.509   3.654   1.107 -0.4926 -0.4285 -0.2569
    1R01  A110d 4365   3.574   3.660   1.193 -1.3478 -2.0770 -1.6755
    1R01  A110e 4366   3.527   3.762   1.004  0.5580  0.6693  0.7637
    1R01  A110f 4367   3.611   3.753   0.935 -0.1087 -0.8448  0.6497
    1R01  A1110 4368   3.514   3.889   1.087 -0.7740 -0.0402  0.4053
    1R01  A1111 4369   3.583   3.894   1.163 -2.9287  0.0842 -1.9519
    1R01  A1112 4370   3.358   3.877   1.122 -0.2885 -0.1460 -0.2896
    1R01  A1113 4371   3.330   3.885   1.230  0.8191  2.2289  1.7088
    1R01  A1114 4372   3.285   3.749   1.054 -0.0814 -0.2121 -0.0314
    1R01  A1115 4373   3.175   3.761   1.038  1.5794 -0.9384 -0.3500
    1R01  A1116 4374   3.390   3.746   0.926  1.0335 -0.3883 -0.2506
    1R01  A1117 4375   3.378   3.841   0.869  0.4745  1.0978  2.6624
    1R01  A1118 4376   3.373   3.658   0.868  1.3372  1.9418 -1.7453
    1R01  A1119 4377   3.497   3.511   1.068 -0.7164 -0.2190 -0.1422
    1R01  A111a 4378   3.592   3.409   1.042  0.3835 -0.2695 -1.0587
    1R01  A111b 4379   3.694   3.422   1.013 -1.4629 -2.0687 -2.7749
    1R01  A111c 4380   3.419   3.117   1.191  0.4770  0.1250  0.6407
    1R01  A111d 4381   3.538   3.046   1.142  0.6053  0.1755  0.4298
    1R01  A111e 4382   3.555   2.906   1.149  0.4007 -0.1103 -0.5264
    1R01  A111f 4383   3.627   2.853   1.091  1.1708  2.2843  0.0689
    1R01  A1120 4384   3.453   2.841   1.221 -0.1775 -0.3549 -0.3090
    1R01  A1121 4385   3.396   2.707   1.257 -0.0903  0.7215 -0.3179
    1R01  A1122 4386   3.465   2.647   1.318 -0.7536 -1.2415 -0.1220
    1R01  A1123 4387   3.282   2.779   1.332 -0.1680 -0.3197  0.0143
    1R01  A1124 4388   3.277   2.763   1.442 -3.0698 -0.7235  0.3813
    1R01  A1125 4389   3.148   2.718   1.280  0.2826 -0.5244 -0.7778
    1R01  A1126 4390   3.055   2.764   1.315  0.2150 -2.0038 -1.3993
    1R01  A1127 4391   3.156   2.570   1.323  0.2416  0.2230 -0.5032
    1R01  A1128 4392   3.056   2.527   1.320  2.1960  0.5522  2.2207
    1R01  A1129 4393   3.241   2.505   1.433  0.4232 -0.3523  0.0424
    1R01  A112a 4394   3.319   2.445   1.344  0.0257  0.2257 -0.3230
    1R01  A112b 4395   3.447   2.391   1.375 -0.1020 -0.0861 -0.1995
    1R01  A112c 4396   3.552   2.365   1.270 -0.4114 -0.4516  0.1941
    1R01  A112d 4397   3.654   2.360   1.320  0.4402  4.0738 -0.9186
    1R01  A112e 4398   3.549   2.438   1.191  1.9441  2.0503 -0.2149
    1R01  A112f 4399   3.529   2.270   1.220  1.9214 -3.4891  3.1158
    1R01  A1130 4400   3.473   2.379   1.513 -0.0864  0.6392  0.3654
    1R01  A1131 4401   3.383   2.426   1.608  0.3571  0.1406 -0.7916
    1R01  A1132 4402   3.264   2.500   1.571 -0.2111 -0.8602  0.1212
    1R01  A1133 4403   3.175   2.575   1.669  0.4308  0.5591 -0.1883
    1R01  A1134 4404   3.243   2.640   1.728  0.9108 -0.9789 -1.2134
    1R01  A1135 4405   3.128   2.515   1.746  0.7325  0.2080  1.1155
    1R01  A1136 4406   3.104   2.635   1.609 -2.1755  0.3232 -2.4319
    1R01  A1137 4407   3.257   2.508   1.225  0.5943 -0.4254 -0.0974
    1R01  A1138 4408   3.220   2.426   1.159 -0.3561 -1.6154  0.3689
    1R01  A1139 4409   3.326   2.618   1.147  0.1660  0.2591 -0.0656
    1R01  A113a 4410   3.372   2.589   1.057  0.9018 -1.5639  3.8756
    1R01  A113b 4411   3.193   2.698   1.135  0.5354 -0.8034 -0.1388
    1R01  A113c 4412   3.212   2.798   1.089 -0.9736 -0.4366  0.6001
    1R01  A113d 4413   3.122   2.650   1.068 -1.0415  0.8884 -1.3899
    1R01  A113e 4414   3.347   2.906   1.279  0.1813  0.3717 -0.2142
    1R01  A113f 4415   3.315   3.042   1.267  0.0866 -0.2787 -0.4901
    1R01  A1140 4416   3.226   3.093   1.302 -0.5693 -2.0719 -0.4502
    1R01  A1141 4417   0.859   1.888   1.091  0.0726 -0.1800 -0.8825
    1R01  A1142 4418   0.917   1.798   1.059  0.5935  0.1337 -1.3002
    1R01  A1143 4419   0.756   1.856   1.075 -0.4795 -0.2146 -1.1679
    1R01  A1144 4420   0.894   1.970   1.022  0.4005  0.1999 -0.6016
    1R01  A1145 4421   0.890   1.925   1.234  0.4577  0.3209 -0.7464
    1R01  A1146 4422   0.809   1.841   1.334 -0.2745  0.4496  0.3626
    1R01  A1147 4423   0.706   1.823   1.296  2.5889 -0.9138 -1.1472
    1R01  A1148 4424   0.795   1.896   1.420 -1.1614 -0.1400 -0.8485
    1R01  A1149 4425   0.868   1.751   1.357  0.0620  0.6398  0.3888
    1R01  A114a 4426   0.838   2.074   1.249  0.2542  0.7507  0.0723
    1R01  A114b 4427   0.953   2.158   1.254 -0.2229  0.2083  0.2379
    1R01  A114c 4428   0.933   2.287   1.310 -1.3582 -0.2866 -0.0763
    1R01  A114d 4429   1.014   2.341   1.362 -1.7023  1.6277  0.5462
    1R01  A114e 4430   0.808   2.335   1.307  0.6402  0.0477 -0.3289
    1R01  A114f 4431   0.730   2.429   1.402 -0.3525 -0.3909 -0.1984
    1R01  A1150 4432   0.729   2.533   1.355 -0.5911  1.5583 -0.8850
    1R01  A1151 4433   0.605   2.343   1.357 -0.4476 -0.8648 -0.2825
    1R01  A1152 4434   0.536   2.389   1.295 -2.5115 -0.4036 -1.5773
    1R01  A1153 4435   0.540   2.298   1.483 -0.0747  0.0978 -0.0585
    1R01  A1154 4436   0.473   2.213   1.472  1.2546 -0.1751  0.3270
    1R01  A1155 4437   0.483   2.441   1.534 -0.0770 -0.7427  0.5527
    1R01  A1156 4438   0.441   2.502   1.451 -0.8105  2.1658  0.8494
    1R01  A1157 4439   0.612   2.517   1.593  0.4223  0.4961 -0.4615
    1R01  A1158 4440   0.627   2.617   1.557 -1.6883 -0.4236 -1.4431
    1R01  A1159 4441   0.732   2.425   1.561 -0.2391  0.5674 -1.0317
    1R01  A115a 4442   0.826   2.449   1.618 -0.4907 -2.1945 -0.9546
    1R01  A115b 4443   0.673   2.280   1.580 -0.4545 -0.0477  0.8284
    1R01  A115c 4444   0.742   2.196   1.555 -0.4019 -0.1573 -0.1669
    1R01  A115d 4445   0.654   2.277   1.691  0.3860 -2.4299  1.1209
    1R01  A115e 4446   0.698   2.255   1.277  0.5715  0.0867 -0.0253
    1R01  A115f 4447   0.709   2.118   1.253 -0.7213  0.2934 -0.7789
    1R01  A1160 4448   0.620   2.053   1.251 -1.2408  1.9216  0.8180
    1R01  A1161 4449   1.073   2.069   1.265 -0.1995  0.6343 -0.8041
    1R01  A1162 4450   1.036   1.933   1.267 -0.0140  0.2006  1.1171
    1R01  A1163 4451   1.127   1.825   1.297  0.2852  0.1165 -0.1097
    1R01  A1164 4452   1.085   1.726   1.311 -1.2069  0.7860  2.1107
    1R01  A1165 4453   1.261   1.859   1.311  0.2229 -1.2828  0.5735
    1R01  A1166 4454   1.397   1.796   1.303  0.4636 -0.5628 -0.2952
    1R01  A1167 4455   1.433   1.782   1.400 -0.4239  0.2119  0.9849
    1R01  A1168 4456   1.442   1.929   1.235 -0.2511 -0.1001  0.3734
    1R01  A1169 4457   1.515   1.978   1.300  2.6195  0.8736  1.3644
    1R01  A116a 4458   1.519   1.877   1.103  0.6050  1.3356 -0.0134
    1R01  A116b 4459   1.591   1.947   1.072 -2.4385 -0.0897 -1.1161
    1R01  A116c 4460   1.406   1.824   1.010 -0.5484 -0.0313  0.3711
    1R01  A116d 4461   1.325   1.896   0.980 -2.7152 -1.3825  0.6522
    1R01  A116e 4462   1.426   1.725   0.896  0.3770  0.2047  0.1516
    1R01  A116f 4463   1.363   1.620   0.968 -0.0755 -0.1878 -0.2878
    1R01  A1170 4464   1.278   1.520   0.923  0.3956 -0.1297 -0.0534
    1R01  A1171 4465   1.182   1.448   1.011 -1.1562  0.4056  0.4887
    1R01  A1172 4466   1.224   1.426   1.107 -1.6619 -1.4265 -0.6748
    1R01  A1173 4467   1.147   1.351   0.968 -1.9649 -2.5346  1.1338
    1R01  A1174 4468   1.088   1.502   1.029  0.4222  1.9782  2.6258
    1R01  A1175 4469   1.252   1.542   0.784  0.7116  0.7901  0.3018
    1R01  A1176 4470   1.321   1.634   0.702 -0.9843 -0.2779  0.3182
    1R01  A1177 4471   1.407   1.734   0.756 -0.5182  0.0698  0.5193
    1R01  A1178 4472   1.449   1.859   0.687 -0.1940  0.0209  1.0700
    1R01  A1179 4473   1.551   1.892   0.705 -1.5864  1.8975  1.6503
    1R01  A117a 4474   1.388   1.944   0.723 -1.2025  2.5919 -0.1691
    1R01  A117b 4475   1.451   1.855   0.578  0.6830  1.4746 -0.6279
    1R01  A117c 4476   1.355   1.702   1.093  0.5992  0.1117  0.0388
    1R01  A117d 4477   1.250   1.701   1.108  2.3650 -0.2299 -0.0660
    1R01  A117e 4478   1.441   1.674   1.220  0.4495 -0.3775 -1.0502
    1R01  A117f 4479   1.442   1.572   1.273  0.6240  0.1635 -0.9524
    1R01  A1180 4480   1.572   1.742   1.166  0.6618  0.5101 -0.9800
    1R01  A1181 4481   1.617   1.684   1.085 -1.8970  0.7848 -2.5782
    1R01  A1182 4482   1.642   1.753   1.249  0.9616  0.6444 -1.1274
    1R01  A1183 4483   1.302   1.980   1.267 -0.2013  0.8411  0.0057
    1R01  A1184 4484   1.214   2.086   1.249  0.1987  0.3823 -0.3470
    1R01  A1185 4485   1.258   2.179   1.225 -2.6057 -0.3909 -1.0436
    1R01  A1186 4486   3.139   3.376  -2.425  0.3651  0.2111 -0.2644
    1R01  A1187 4487   3.095   3.277  -2.405 -0.8168  1.1895 -2.2905
    1R01  A1188 4488   3.058   3.446  -2.405 -1.6573  0.6759  0.0604
    1R01  A1189 4489   3.161   3.389  -2.528 -0.9311 -1.5879 -0.1305
    1R01  A118a 4490   3.256   3.406  -2.340 -0.3519  0.3502  0.0694
    1R01  A118b 4491   3.369   3.295  -2.347  0.0395  0.5148 -0.5978
    1R01  A118c 4492   3.449   3.325  -2.279 -1.3912  1.0162 -0.3471
    1R01  A118d 4493   3.415   3.288  -2.448  3.1219 -1.4360 -0.6273
    1R01  A118e 4494   3.334   3.193  -2.321 -0.5733  1.5150  0.0539
    1R01  A118f 4495   3.223   3.411  -2.188  0.9655  0.0068 -0.7863
    1R01  A1190 4496   3.275   3.533  -2.139 -0.3899  0.0282 -0.5966
    1R01  A1191 4497   3.319   3.544  -2.005 -0.1457 -0.7639  0.2015
    1R01  A1192 4498   3.372   3.631  -1.971 -0.9894 -0.2692  2.6422
    1R01  A1193 4499   3.291   3.428  -1.923  0.2594  0.1433  0.1771
    1R01  A1194 4500   3.329   3.360  -1.798 -0.0373  0.1575 -0.4257
    1R01  A1195 4501   3.291   3.416  -1.713 -3.5741  0.2637 -1.5218
    1R01  A1196 4502   3.226   3.250  -1.838  0.1021  0.4275 -0.4419
    1R01  A1197 4503   3.127   3.263  -1.795 -0.2403  0.5683 -1.9481
    1R01  A1198 4504   3.289   3.112  -1.815  0.3143  0.1186 -0.2058
    1R01  A1199 4505   3.258   3.024  -1.867 -1.4747 -0.0767 -0.2180
    1R01  A119a 4506   3.318   3.103  -1.659  0.1409 -0.5026  0.6658
    1R01  A119b 4507   3.228   3.104  -1.589  2.3848 -1.2988  1.0547
    1R01  A119c 4508   3.433   3.211  -1.634  0.1469  0.1410  0.1166
    1R01  A119d 4509   3.406   3.282  -1.556 -1.5911 -1.4659  0.8746
    1R01  A119e 4510   3.463   3.276  -1.774  0.4716 -0.2339 -0.5452
    1R01  A119f 4511   3.562   3.321  -1.793 -2.5665  1.4742 -0.5733
    1R01  A11a0 4512   3.435   3.148  -1.871  0.2334 -0.0778 -0.1592
    1R01  A11a1 4513   3.438   3.170  -1.986 -1.8012  1.2379  0.9257
    1R01  A11a2 4514   3.504   3.064  -1.858  0.8053 -0.7346  1.1250
    1R01  A11a3 4515   3.218   3.324  -1.964 -0.3154  0.5816  0.2568
    1R01  A11a4 4516   3.190   3.301  -2.100 -0.6890 -0.5888 -0.5145
    1R01  A11a5 4517   3.155   3.209  -2.145  0.8639 -2.3425  3.3853
    1R01  A11a6 4518   3.313   3.625  -2.249  0.6085  0.0528 -0.4283
    1R01  A11a7 4519   3.312   3.546  -2.369  0.1498  0.2199 -0.3134
    1R01  A11a8 4520   3.373   3.600  -2.487 -0.0612  0.5901 -0.8387
    1R01  A11a9 4521   3.380   3.530  -2.570 -0.5926  0.6171  0.1958
    1R01  A11aa 4522   3.421   3.731  -2.466  0.0415  0.0736  0.5265
    1R01  A11ab 4523   3.533   3.809  -2.524  0.1894  0.0822  0.7730
    1R01  A11ac 4524   3.634   3.767  -2.509  2.1723  1.9528  1.9271
    1R01  A11ad 4525   3.492   3.915  -2.411 -0.5020  0.1580  0.0088
    1R01  A11ae 4526   3.573   3.933  -2.339 -0.5364  0.4962  1.6161
    1R01  A11af 4527   3.465   4.052  -2.488  0.7449 -0.2120  0.1086
    1R01  A11b0 4528   3.468   4.147  -2.438  0.4713 -0.9439 -0.5418
    1R01  A11b1 4529   3.338   4.033  -2.581  0.5782 -0.6032  0.2138
    1R01  A11b2 4530   3.324   4.139  -2.618  0.7095 -0.9891  1.1418
    1R01  A11b3 4531   3.207   3.960  -2.565 -0.0396  0.4340 -0.2545
    1R01  A11b4 4532   3.251   3.863  -2.661  0.4488  0.3119 -0.3939
    1R01  A11b5 4533   3.150   3.798  -2.736 -0.4600  0.2155  0.2475
    1R01  A11b6 4534   3.179   3.727  -2.862 -0.3880  0.7197 -0.1661
    1R01  A11b7 4535   3.105   3.648  -2.880 -2.2063 -1.8174 -1.4722
    1R01  A11b8 4536   3.207   3.788  -2.948  1.4819 -0.5234  1.7609
    1R01  A11b9 4537   3.270   3.665  -2.837  1.2784  1.6963  1.7339
    1R01  A11ba 4538   3.010   3.829  -2.712 -1.1306  0.5790  0.4949
    1R01  A11bb 4539   2.976   3.939  -2.635  0.6392  1.0450 -0.2833
    1R01  A11bc 4540   3.074   4.010  -2.562 -0.5062 -0.0522  0.4055
    1R01  A11bd 4541   3.039   4.126  -2.467  0.2160  0.2434  0.5005
    1R01  A11be 4542   2.984   4.205  -2.511 -0.1289  0.2309  2.4550
    1R01  A11bf 4543   3.132   4.178  -2.433  0.6697 -0.3758  1.2856
    1R01  A11c0 4544   2.995   4.090  -2.370 -0.4643 -1.1440  1.0903
    1R01  A11c1 4545   3.380   3.933  -2.689 -0.5694  0.5732 -0.4997
    1R01  A11c2 4546   3.382   3.975  -2.786 -1.2358 -3.6432 -0.7029
    1R01  A11c3 4547   3.531   3.892  -2.660  0.9676 -0.2179  0.2697
    1R01  A11c4 4548   3.595   3.864  -2.745 -1.9024  1.7376  0.3940
    1R01  A11c5 4549   3.574   4.031  -2.601  0.3532  0.6181  0.4184
    1R01  A11c6 4550   3.574   4.104  -2.686  3.0912  1.2505 -2.4949
    1R01  A11c7 4551   3.679   4.022  -2.569  0.3013  1.0789 -4.8502
    1R01  A11c8 4552   3.397   3.811  -2.362  0.8396  0.5740  0.1217
    1R01  A11c9 4553   3.353   3.758  -2.244 -0.0068 -0.6178 -0.5214
    1R01  A11ca 4554   3.376   3.813  -2.156 -0.0050  0.6008  1.4746
    1R01  A11cb 4555  -2.454  -0.994  -4.242  0.0748  0.0549 -0.0946
    1R01  A11cc 4556  -2.545  -0.970  -4.202  2.6450 -0.9803 -3.1022
    1R01  A11cd 4557  -2.473  -1.059  -4.328 -2.2129  1.1895  0.4586
    1R01  A11ce 4558  -2.399  -1.060  -4.167  2.1964 -0.0035 -1.5029
    1R01  A11cf 4559  -2.389  -0.858  -4.289  0.4379  0.0863  0.0993
    1R01  A11d0 4560  -2.466  -0.797  -4.413  0.3319  0.2436 -0.1810
    1R01  A11d1 4561  -2.437  -0.836  -4.504  1.4110  0.0555  0.3689
    1R01  A11d2 4562  -2.574  -0.798  -4.397  0.2241 -1.6339 -1.9986
    1R01  A11d3 4563  -2.443  -0.693  -4.423 -0.5004 -2.1067  0.2540
    1R01  A11d4 4564  -2.237  -0.864  -4.319 -0.1181  0.9654 -0.6298
    1R01  A11d5 4565  -2.177  -0.789  -4.218  0.1466  0.2831 -0.0521
    1R01  A11d6 4566  -2.045  -0.744  -4.229  0.7138 -0.3867 -0.5511
    1R01  A11d7 4567  -2.005  -0.666  -4.175 -1.7853 -1.5981 -0.2288
    1R01  A11d8 4568  -1.963  -0.802  -4.332  0.1210 -0.0220  0.0623
    1R01  A11d9 4569  -1.852  -0.760  -4.426 -0.2172  0.1103 -0.0181
    1R01  A11da 4570  -1.754  -0.795  -4.393 -0.0603 -0.7607  3.4689
    1R01  A11db 4571  -1.917  -0.861  -4.530 -0.2602  0.1381  0.9048
    1R01  A11dc 4572  -1.870  -0.959  -4.543 -0.4274  0.6869 -0.3957
    1R01  A11dd 4573  -1.926  -0.776  -4.656  0.0860 -0.5377 -1.1990
    1R01  A11de 4574  -1.989  -0.820  -4.737  1.2933  1.1696 -2.5182
    1R01  A11df 4575  -1.770  -0.760  -4.696 -0.1229 -0.3620  0.6250
    1R01  A11e0 4576  -1.707  -0.851  -4.705 -1.6803 -2.0798 -2.6400
    1R01  A11e1 4577  -1.714  -0.642  -4.595  0.4639  0.4349 -0.0155
    1R01  A11e2 4578  -1.622  -0.661  -4.544 -1.2738  2.2378 -1.0506
    1R01  A11e3 4579  -1.835  -0.618  -4.499  0.2272  0.3741 -1.0956
    1R01  A11e4 4580  -1.833  -0.527  -4.434 -0.7620  1.4394 -1.1385
    1R01  A11e5 4581  -1.959  -0.640  -4.593  0.2323 -0.1933  0.3610
    1R01  A11e6 4582  -2.053  -0.644  -4.545  0.1514 -0.8984  4.6989
    1R01  A11e7 4583  -1.966  -0.567  -4.674  0.0997 -0.4227  1.5713
    1R01  A11e8 4584  -2.024  -0.885  -4.426  0.5767  0.3240  0.5022
    1R01  A11e9 4585  -2.161  -0.913  -4.433  0.1877 -0.6760  0.5188
    1R01  A11ea 4586  -2.197  -0.970  -4.520  3.0645 -0.5396 -2.1391
    1R01  A11eb 4587  -2.283  -0.734  -4.123  0.2398  0.1258 -0.0121
    1R01  A11ec 4588  -2.407  -0.768  -4.164  1.0543 -0.1173 -0.1062
    1R01  A11ed 4589  -2.525  -0.714  -4.113 -0.2442 -0.4639  0.6627
    1R01  A11ee 4590  -2.626  -0.732  -4.154 -3.2937  1.1084 -0.3188
    1R01  A11ef 4591  -2.505  -0.625  -4.006  0.5248  0.6658  0.0851
    1R01  A11f0 4592  -2.576  -0.516  -3.923 -0.3346  0.0531 -0.1721
    1R01  A11f1 4593  -2.599  -0.429  -3.992  3.9762 -0.0433 -1.3683
    1R01  A11f2 4594  -2.437  -0.504  -3.854 -0.2692  0.0539 -0.2760
    1R01  A11f3 4595  -2.380  -0.412  -3.873  4.3911  3.2481 -0.0465
    1R01  A11f4 4596  -2.467  -0.516  -3.697 -0.3621 -0.0570 -0.1414
    1R01  A11f5 4597  -2.392  -0.473  -3.623  0.5697  0.9359  1.9706
    1R01  A11f6 4598  -2.528  -0.660  -3.673  0.4355  0.0356 -0.7286
    1R01  A11f7 4599  -2.540  -0.682  -3.567 -0.6922 -2.5414  0.9763
    1R01  A11f8 4600  -2.500  -0.784  -3.755  0.0569  0.0066 -0.0412
    1R01  A11f9 4601  -2.622  -0.786  -3.814 -0.4804 -0.0957  0.3694
    1R01  A11fa 4602  -2.668  -0.894  -3.900 -0.6526 -0.9353 -0.3265
    1R01  A11fb 4603  -2.813  -0.899  -3.958 -0.9100 -0.4268 -0.6487
    1R01  A11fc 4604  -2.867  -0.802  -3.936 -2.5473 -1.0448  2.7248
    1R01  A11fd 4605  -2.874  -0.969  -3.910  1.6316 -0.2588  0.9270
    1R01  A11fe 4606  -2.814  -0.922  -4.063  2.0449  3.0202 -1.4197
    1R01  A11ff 4607  -2.573  -1.002  -3.910  0.0147  0.3290 -0.5363
    1R01  A1200 4608  -2.449  -1.004  -3.847 -0.1913 -0.7628  0.3510
    1R01  A1201 4609  -2.410  -0.896  -3.763 -0.3780 -0.1505 -0.7029
    1R01  A1202 4610  -2.282  -0.892  -3.680 -0.0552  0.3866  0.5954
    1R01  A1203 4611  -2.197  -0.930  -3.738 -1.9261  2.3308  1.1166
    1R01  A1204 4612  -2.278  -0.975  -3.611 -0.1305 -0.5263  1.1128
    1R01  A1205 4613  -2.259  -0.796  -3.634 -0.2940 -1.9613 -0.2210
    1R01  A1206 4614  -2.664  -0.657  -3.745  0.1011  0.2781 -0.3877
    1R01  A1207 4615  -2.748  -0.679  -3.674  1.1118  0.3731  0.7014
    1R01  A1208 4616  -2.684  -0.519  -3.805 -0.4825  0.3863  0.3222
    1R01  A1209 4617  -2.783  -0.493  -3.838  1.2631 -1.5921 -1.3981
    1R01  A120a 4618  -2.600  -0.436  -3.704  0.2302 -0.1657 -0.1918
    1R01  A120b 4619  -2.582  -0.329  -3.733  2.8572  1.0534 -0.4696
    1R01  A120c 4620  -2.643  -0.432  -3.609  0.1114  1.8245  0.8210
    1R01  A120d 4621  -2.389  -0.601  -3.954  0.6276  0.6250 -0.0750
    1R01  A120e 4622  -2.267  -0.643  -4.015 -0.2909  1.0767 -0.9353
    1R01  A120f 4623  -2.167  -0.605  -3.982  0.0812  0.4477  1.0542
    1R01  A1210 4624   1.977   2.951   2.549  0.0459  0.4669 -0.4592
    1R01  A1211 4625   2.036   2.996   2.473  0.1828 -2.8468  2.5551
    1R01  A1212 4626   1.875   2.999   2.546 -0.8346 -0.5611  0.4637
    1R01  A1213 4627   1.967   2.847   2.511  2.2013  2.7842 -1.1113
    1R01  A1214 4628   2.055   2.977   2.684 -0.3421  0.1038 -0.0819
    1R01  A1215 4629   2.026   3.123   2.717 -0.4979 -0.2506  0.5124
    1R01  A1216 4630   1.922   3.152   2.727 -0.5501  1.6061 -1.7960
    1R01  A1217 4631   2.073   3.141   2.813 -1.2856 -0.3690  2.7507
    1R01  A1218 4632   2.085   3.190   2.649 -0.3916  0.2525  0.8779
    1R01  A1219 4633   2.217   2.973   2.675 -0.6073  0.0761  0.5304
    1R01  A121a 4634   2.252   2.894   2.783  0.3693 -0.6470 -0.0892
    1R01  A121b 4635   2.392   2.878   2.814 -0.4467  0.2559 -0.2995
    1R01  A121c 4636   2.429   2.834   2.904  0.3089 -0.7553  0.1069
    1R01  A121d 4637   2.477   2.946   2.721 -0.6884 -0.2402  0.1925
    1R01  A121e 4638   2.622   2.999   2.711 -0.5219 -0.2319  0.2321
    1R01  A121f 4639   2.682   2.910   2.709 -1.1221 -0.1781  1.7510
    1R01  A1220 4640   2.577   3.067   2.576  0.3804 -0.6381  1.5565
    1R01  A1221 4641   2.610   3.028   2.477  2.7397  0.9459 -0.4104
    1R01  A1222 4642   2.614   3.227   2.586  0.7715 -0.5864  0.3483
    1R01  A1223 4643   2.550   3.290   2.527 -0.0440 -2.0858  2.6820
    1R01  A1224 4644   2.764   3.220   2.577 -0.5037 -0.0793 -0.0503
    1R01  A1225 4645   2.801   3.168   2.484 -0.1981 -0.6235  1.0983
    1R01  A1226 4646   2.810   3.152   2.719  0.1637 -0.5741 -0.3864
    1R01  A1227 4647   2.871   3.059   2.704 -1.7153 -1.7068  1.5226
    1R01  A1228 4648   2.681   3.116   2.797  0.1395  0.6372 -0.0603
    1R01  A1229 4649   2.674   3.114   2.907 -1.2407 -2.0692  2.4803
    1R01  A122a 4650   2.590   3.234   2.745 -0.7365 -0.7488 -0.1262
    1R01  A122b 4651   2.629   3.335   2.777  1.1346 -0.4738  1.5557
    1R01  A122c 4652   2.481   3.236   2.767  1.1857  3.9342 -0.1264
    1R01  A122d 4653   2.436   3.015   2.615  0.0729  0.5290 -0.4243
    1R01  A122e 4654   2.304   3.028   2.579  0.6248 -0.0105  0.0300
    1R01  A122f 4655   2.267   3.098   2.494 -0.3736  1.0712 -0.3690
    1R01  A1230 4656   2.137   2.839   2.854  0.2810 -0.4951 -0.6707
    1R01  A1231 4657   2.015   2.878   2.791 -0.0519 -0.2071 -0.5037
    1R01  A1232 4658   1.887   2.823   2.818 -0.7645  0.4813  0.4553
    1R01  A1233 4659   1.788   2.854   2.766 -2.0036 -2.1337 -1.2799
    1R01  A1234 4660   1.893   2.729   2.915 -0.1818 -0.4189 -0.3736
    1R01  A1235 4661   1.800   2.654   2.999 -0.2805  0.4649 -0.0051
    1R01  A1236 4662   1.731   2.720   3.061 -0.3811 -0.1331 -1.8053
    1R01  A1237 4663   1.929   2.602   3.080  0.3218  0.9692  0.8312
    1R01  A1238 4664   1.946   2.656   3.174  2.4031  0.3076  0.2097
    1R01  A1239 4665   1.906   2.444   3.104  0.9180  0.0004 -0.2451
    1R01  A123a 4666   1.956   2.401   3.193 -0.3915  0.9177  1.3725
    1R01  A123b 4667   1.920   2.378   2.967  0.5486 -0.2667  0.2719
    1R01  A123c 4668   1.909   2.269   2.972 -1.3269  0.6580 -3.0591
    1R01  A123d 4669   2.011   2.428   2.863  0.1193  0.7237 -0.6779
    1R01  A123e 4670   1.913   2.482   2.782  0.1355 -0.7952 -0.3096
    1R01  A123f 4671   1.937   2.537   2.651  0.1879  0.1932 -0.2667
    1R01  A1240 4672   1.830   2.584   2.552  0.1527 -0.0578  0.4162
    1R01  A1241 4673   1.757   2.647   2.609 -2.0923  0.4375  2.7693
    1R01  A1242 4674   1.775   2.501   2.509  1.5609  0.1697 -1.1571
    1R01  A1243 4675   1.866   2.650   2.480 -0.4755  2.9695  2.0403
    1R01  A1244 4676   2.075   2.548   2.628  0.0722 -0.1916 -1.4449
    1R01  A1245 4677   2.169   2.508   2.719  0.7677  0.0883  0.4017
    1R01  A1246 4678   2.150   2.442   2.836  0.2323  0.4642 -0.2628
    1R01  A1247 4679   2.258   2.407   2.937  0.2977  0.1681 -0.4383
    1R01  A1248 4680   2.322   2.324   2.897 -0.3620  1.4284  0.8079
    1R01  A1249 4681   2.221   2.380   3.037  0.0018  1.1264 -2.3800
    1R01  A124a 4682   2.316   2.496   2.947 -0.3721 -2.0688  1.1590
    1R01  A124b 4683   1.803   2.441   2.873  0.3376 -0.3723  0.0610
    1R01  A124c 4684   1.739   2.363   2.827 -0.5770  2.9374 -1.8505
    1R01  A124d 4685   1.718   2.526   2.967  0.7983 -0.2597  0.2637
    1R01  A124e 4686   1.620   2.540   2.924 -1.9614 -0.5278  2.3070
    1R01  A124f 4687   1.748   2.445   3.104 -0.3111 -0.4118  1.1439
    1R01  A1250 4688   1.717   2.500   3.193  0.3426 -0.3971 -0.7073
    1R01  A1251 4689   1.700   2.340   3.109  3.6630 -0.0327  1.9695
    1R01  A1252 4690   2.006   2.690   2.980 -0.5643  0.4948  0.6512
    1R01  A1253 4691   2.132   2.744   2.965  0.5225  0.0724 -0.0963
    1R01  A1254 4692   2.215   2.722   3.025  1.4146  2.0619 -0.5532
    1R01  A1255 4693   0.156   3.449  -4.139 -0.1908 -0.3121  0.0199
    1R01  A1256 4694   0.107   3.351  -4.130 -3.3355  0.2797  1.4769
    1R01  A1257 4695   0.076   3.501  -4.201 -2.4801 -1.7911  1.4676
    1R01  A1258 4696   0.252   3.445  -4.192 -1.1181  1.0673  0.9706
    1R01  A1259 4697   0.165   3.508  -4.000 -0.3657  0.4330  0.0927
    1R01  A125a 4698   0.183   3.660  -4.007 -0.0952 -0.1486  0.6086
    1R01  A125b 4699   0.268   3.682  -4.067  0.0328 -1.1781 -0.9248
    1R01  A125c 4700   0.202   3.696  -3.907 -1.0149 -0.6352 -0.2835
    1R01  A125d 4701   0.093   3.713  -4.039 -1.0868  0.9693 -0.7790
    1R01  A125e 4702   0.289   3.443  -3.921 -0.3989 -0.3651 -0.7739
    1R01  A125f 4703   0.241   3.409  -3.797  0.2008  0.1055 -1.0971
    1R01  A1260 4704   0.323   3.373  -3.689 -0.3350  0.9669  0.0841
    1R01  A1261 4705   0.286   3.343  -3.586 -1.3729 -0.0304 -0.2605
    1R01  A1262 4706   0.462   3.357  -3.731 -0.2985  0.6885  0.8779
    1R01  A1263 4707   0.601   3.323  -3.675  0.2220  0.4197  1.0108
    1R01  A1264 4708   0.593   3.219  -3.648 -2.8008  2.8289  2.2100
    1R01  A1265 4709   0.645   3.342  -3.824 -0.0697 -0.1120 -0.0640
    1R01  A1266 4710   0.671   3.254  -3.878  0.5457 -1.1920 -1.6899
    1R01  A1267 4711   0.760   3.443  -3.829 -0.2527  0.3400 -0.2641
    1R01  A1268 4712   0.775   3.488  -3.922 -0.0690 -0.0071 -0.9477
    1R01  A1269 4713   0.877   3.369  -3.760  0.2650 -0.2872 -0.2094
    1R01  A126a 4714   0.895   3.273  -3.810  1.8722 -2.5317 -3.1181
    1R01  A126b 4715   0.837   3.357  -3.610 -0.3740 -0.4041  0.7222
    1R01  A126c 4716   0.839   3.254  -3.573 -2.2484 -0.6570 -0.1010
    1R01  A126d 4717   0.699   3.418  -3.596  0.9501  0.5521  0.1223
    1R01  A126e 4718   0.672   3.465  -3.496 -0.7049  1.4597  2.4899
    1R01  A126f 4719   0.721   3.528  -3.704  0.1399 -0.6727  1.0358
    1R01  A1270 4720   0.630   3.588  -3.733  0.1641 -0.5518  0.4647
    1R01  A1271 4721   0.800   3.593  -3.673 -0.3004 -0.2526 -1.3008
    1R01  A1272 4722   0.511   3.380  -3.857  0.8488  0.0281  0.3935
    1R01  A1273 4723   0.428   3.426  -3.963  0.0425 -0.1053 -0.1559
    1R01  A1274 4724   0.482   3.446  -4.059 -0.4608 -1.3923  2.1313
    1R01  A1275 4725   0.092   3.422  -3.793 -0.3955  0.5509  0.0909
    1R01  A1276 4726   0.048   3.469  -3.918  0.3339 -0.3346  0.1528
    1R01  A1277 4727  -0.097   3.484  -3.940 -0.2046  0.1858 -0.0313
    1R01  A1278 4728  -0.138   3.548  -4.018  1.5192 -1.2348  0.6973
    1R01  A1279 4729  -0.176   3.440  -3.832  0.0143 -0.7516 -0.2033
    1R01  A127a 4730  -0.293   3.494  -3.769 -0.1773  0.8416  0.2675
    1R01  A127b 4731  -0.289   3.605  -3.773  2.5004 -3.7770 -1.4641
    1R01  A127c 4732  -0.250   3.427  -3.629  0.4284 -0.3197  0.1568
    1R01  A127d 4733  -0.218   3.507  -3.561 -1.2077  3.4798 -3.9243
    1R01  A127e 4734  -0.368   3.348  -3.571  0.9989 -0.7687 -0.0683
    1R01  A127f 4735  -0.365   3.321  -3.466  0.0576  0.9610 -2.6048
    1R01  A1280 4736  -0.398   3.237  -3.674 -0.0741 -0.8447 -0.6015
    1R01  A1281 4737  -0.462   3.168  -3.617  0.6699 -0.8550 -1.2880
    1R01  A1282 4738  -0.300   3.155  -3.757  0.3376 -0.0309 -0.7816
    1R01  A1283 4739  -0.347   3.207  -3.876 -0.0861 -0.0167 -0.1937
    1R01  A1284 4740  -0.295   3.169  -4.000 -0.0358 -0.6780 -0.3039
    1R01  A1285 4741  -0.338   3.221  -4.134  0.3625 -0.0039  0.1626
    1R01  A1286 4742  -0.267   3.301  -4.155  0.1385 -0.1353  1.2920
    1R01  A1287 4743  -0.331   3.143  -4.210  1.6168 -1.3080 -0.6578
    1R01  A1288 4744  -0.444   3.251  -4.139  0.5267 -0.0241  1.3686
    1R01  A1289 4745  -0.180   3.079  -3.981 -0.0030 -0.0371 -0.2237
    1R01  A128a 4746  -0.144   3.033  -3.859  0.5383 -0.8261 -0.4174
    1R01  A128b 4747  -0.201   3.062  -3.736  0.3825 -0.6988 -0.3856
    1R01  A128c 4748  -0.148   3.010  -3.608 -0.0303 -0.4337  0.4046
    1R01  A128d 4749  -0.217   2.984  -3.524 -0.2053  0.0276  1.4915
    1R01  A128e 4750  -0.097   2.921  -3.638  0.2721 -0.0138 -0.8846
    1R01  A128f 4751  -0.077   3.085  -3.580 -2.7397 -1.3565  0.2080
    1R01  A1290 4752  -0.454   3.296  -3.808 -0.3472 -0.1131 -0.4587
    1R01  A1291 4753  -0.553   3.264  -3.837  1.0354  0.2318 -3.3442
    1R01  A1292 4754  -0.447   3.451  -3.784 -0.2666 -0.3907 -0.1940
    1R01  A1293 4755  -0.513   3.516  -3.844  0.8379 -1.2993  0.2420
    1R01  A1294 4756  -0.485   3.448  -3.627 -0.3658 -0.3991  0.1605
    1R01  A1295 4757  -0.587   3.406  -3.611  0.2715  0.7502  0.6393
    1R01  A1296 4758  -0.482   3.546  -3.574  0.3242  0.8135 -0.1694
    1R01  A1297 4759  -0.127   3.388  -3.713  1.0330 -0.4139 -0.1072
    1R01  A1298 4760   0.011   3.371  -3.685 -0.3006  0.7723 -0.2735
    1R01  A1299 4761   0.060   3.361  -3.583  0.8365 -0.9471  0.1358
    1R01  A129a 4762   2.041   5.508   1.558 -0.1699 -0.5182 -0.2851
    1R01  A129b 4763   2.013   5.583   1.481  1.6437  1.1700 -0.8735
    1R01  A129c 4764   1.989   5.534   1.655 -0.2953 -0.5171 -0.2266
    1R01  A129d 4765   1.992   5.411   1.543  2.7495  1.3599  1.8723
    1R01  A129e 4766   2.198   5.493   1.568 -1.0336  0.4560 -0.0660
    1R01  A129f 4767   2.251   5.626   1.625 -0.6292  0.7429  0.0055
    1R01  A12a0 4768   2.354   5.624   1.670 -1.8505 -1.2270 -2.1006
    1R01  A12a1 4769   2.194   5.660   1.714  0.7436  0.9313 -0.2452
    1R01  A12a2 4770   2.251   5.705   1.556 -0.4071  1.5737 -1.1342
    1R01  A12a3 4771   2.266   5.464   1.435 -0.3817 -0.1062 -0.3838
    1R01  A12a4 4772   2.327   5.333   1.447 -1.5776  0.0578 -0.3119
    1R01  A12a5 4773   2.362   5.249   1.328 -0.2957 -0.4966 -0.2393
    1R01  A12a6 4774   2.376   5.142   1.315  1.1861 -0.7296 -0.4316
    1R01  A12a7 4775   2.359   5.324   1.210  0.1434  0.1946 -0.0451
    1R01  A12a8 4776   2.318   5.298   1.065  0.1523  0.3515  0.1387
    1R01  A12a9 4777   2.224   5.244   1.060 -1.2406 -0.0972  0.2333
    1R01  A12aa 4778   2.289   5.453   1.059  0.1669  0.7498  0.0245
    1R01  A12ab 4779   2.187   5.486   1.041  0.9358 -0.2435  1.1881
    1R01  A12ac 4780   2.377   5.505   0.940  0.1503 -0.3981  0.5457
    1R01  A12ad 4781   2.397   5.611   0.932  2.1653 -0.8706  0.7147
    1R01  A12ae 4782   2.301   5.432   0.827 -0.4411 -0.7748  0.7534
    1R01  A12af 4783   2.195   5.464   0.828  0.1928  0.2742 -1.4112
    1R01  A12b0 4784   2.333   5.277   0.840 -0.5291 -0.1781  0.2316
    1R01  A12b1 4785   2.247   5.207   0.842  0.4487  0.3700 -2.3891
    1R01  A12b2 4786   2.422   5.269   0.960 -0.8298 -0.4193 -0.5859
    1R01  A12b3 4787   2.471   5.172   0.975  0.0106 -0.5554  0.5917
    1R01  A12b4 4788   2.501   5.402   0.952  0.4930  0.2249  0.1374
    1R01  A12b5 4789   2.561   5.401   0.864 -2.1991 -0.3661  1.0920
    1R01  A12b6 4790   2.571   5.410   1.034  1.6339 -1.4726  0.2730
    1R01  A12b7 4791   2.318   5.455   1.208 -0.7197 -0.8076 -0.1252
    1R01  A12b8 4792   2.259   5.532   1.311 -0.3264  0.7855  0.2571
    1R01  A12b9 4793   2.198   5.621   1.292 -1.7253 -2.8824 -0.3798
    1R01  A12ba 4794   2.315   5.284   1.581 -0.3689 -0.4219 -0.0938
    1R01  A12bb 4795   2.233   5.373   1.660  0.2549 -0.2730  0.8717
    1R01  A12bc 4796   2.202   5.342   1.791 -0.2914  0.1533  0.0364
    1R01  A12bd 4797   2.129   5.409   1.845 -3.3269 -1.3118 -2.8463
    1R01  A12be 4798   2.277   5.239   1.852 -0.9435  1.1087  0.3902
    1R01  A12bf 4799   2.275   5.151   1.973  0.1830 -0.2892  0.1161
    1R01  A12c0 4800   2.324   5.202   2.054  1.3136 -1.0578 -1.4785
    1R01  A12c1 4801   2.381   5.059   1.891  0.5313  0.2210 -0.7155
    1R01  A12c2 4802   2.481   5.062   1.936 -1.5027 -0.1890  1.0468
    1R01  A12c3 4803   2.326   4.911   1.907 -0.4204 -0.7550 -0.4163
    1R01  A12c4 4804   2.391   4.826   1.896  1.0371  2.2457  2.5130
    1R01  A12c5 4805   2.190   4.906   1.836  0.0670 -0.7646  0.1402
    1R01  A12c6 4806   2.152   4.802   1.841  1.1597 -0.9448  0.1992
    1R01  A12c7 4807   2.147   4.961   1.705  0.0374  0.0712  0.1075
    1R01  A12c8 4808   2.061   5.057   1.755  0.4329 -0.1009 -0.4056
    1R01  A12c9 4809   1.959   5.099   1.674  0.4025 -0.2479  0.0368
    1R01  A12ca 4810   1.832   5.149   1.740  1.1739 -0.0259 -0.1795
    1R01  A12cb 4811   1.767   5.061   1.766 -0.7433  2.6430  1.3940
    1R01  A12cc 4812   1.785   5.212   1.663 -1.8574  3.2857  0.6586
    1R01  A12cd 4813   1.852   5.209   1.829 -3.3531  0.5813  0.3384
    1R01  A12ce 4814   1.963   5.062   1.543  0.2725 -0.5032 -0.4597
    1R01  A12cf 4815   2.053   4.978   1.491  0.4855  0.4907  0.6826
    1R01  A12d0 4816   2.139   4.906   1.577 -0.1192  0.2592  0.0337
    1R01  A12d1 4817   2.234   4.796   1.538  0.0532 -0.1786 -0.0806
    1R01  A12d2 4818   2.317   4.831   1.473 -0.2855 -2.9374 -1.7902
    1R01  A12d3 4819   2.177   4.723   1.486  1.1504 -0.3378  0.0228
    1R01  A12d4 4820   2.273   4.740   1.626  1.0081 -0.2059 -0.7410
    1R01  A12d5 4821   2.087   5.004   1.900 -0.6024  0.0400  0.0917
    1R01  A12d6 4822   1.997   4.952   1.935 -0.3032  1.3609 -2.7684
    1R01  A12d7 4823   2.165   5.056   2.025  0.8019  0.3544  0.2961
    1R01  A12d8 4824   2.096   5.089   2.110 -1.6945 -1.6708  2.1623
    1R01  A12d9 4825   2.256   4.923   2.055 -0.2778 -0.6507 -0.1768
    1R01  A12da 4826   2.330   4.932   2.137 -1.7348 -0.1395 -2.1357
    1R01  A12db 4827   2.197   4.833   2.074  1.8508 -1.8964 -1.4656
    1R01  A12dc 4828   2.353   5.153   1.774 -0.2735  0.1000  0.4420
    1R01  A12dd 4829   2.379   5.167   1.639 -0.5535 -0.3132  0.4931
    1R01  A12de 4830   2.442   5.096   1.584 -0.6791  2.5972  1.8476
    1R01  A12df 4831   2.249   4.697  -4.104  0.4963  0.4258  0.2965
    1R01  A12e0 4832   2.317   4.616  -4.065  0.0612  0.1520  1.3685
    1R01  A12e1 4833   2.271   4.705  -4.217 -0.4931 -2.4864  1.1118
    1R01  A12e2 4834   2.284   4.787  -4.051 -0.1022 -0.7279 -1.7914
    1R01  A12e3 4835   2.096   4.652  -4.080 -0.6659  0.3092  0.2000
    1R01  A12e4 4836   2.002   4.759  -4.137  0.3762  0.5886 -0.4262
    1R01  A12e5 4837   1.894   4.748  -4.107  0.8301 -1.6281  0.1454
    1R01  A12e6 4838   1.996   4.759  -4.245  1.2774 -0.5180  0.4140
    1R01  A12e7 4839   2.025   4.857  -4.094 -0.8459  1.2977  1.4951
    1R01  A12e8 4840   2.080   4.628  -3.927  0.4197 -0.4267  0.5562
    1R01  A12e9 4841   2.056   4.486  -3.909 -0.0757 -0.2107  0.4177
    1R01  A12ea 4842   2.013   4.428  -3.789  0.3907  0.3275  0.6700
    1R01  A12eb 4843   1.962   4.332  -3.793 -0.6317  0.8375  1.0792
    1R01  A12ec 4844   1.991   4.521  -3.693  0.2779  0.1952 -0.3687
    1R01  A12ed 4845   1.883   4.539  -3.592  0.1606 -0.2287  0.0301
    1R01  A12ee 4846   1.902   4.492  -3.498  1.6743  1.9207 -0.1429
    1R01  A12ef 4847   1.925   4.691  -3.589  0.8500  0.0490  0.4729
    1R01  A12f0 4848   1.967   4.735  -3.490  1.1243  1.4537  0.5331
    1R01  A12f1 4849   1.792   4.764  -3.616 -0.1597 -0.6146 -0.4698
    1R01  A12f2 4850   1.802   4.871  -3.633  0.5019  0.2577 -0.4278
    1R01  A12f3 4851   1.705   4.727  -3.489 -0.5356 -0.5726  0.0259
    1R01  A12f4 4852   1.751   4.748  -3.390 -1.6965 -2.7919 -0.7235
    1R01  A12f5 4853   1.662   4.576  -3.513  0.9220 -0.5591 -0.1182
    1R01  A12f6 4854   1.682   4.504  -3.429 -1.9984  1.2364 -0.2058
    1R01  A12f7 4855   1.735   4.531  -3.643  0.2209  0.4002  0.3485
    1R01  A12f8 4856   1.704   4.438  -3.687 -0.9285 -1.4238  1.4152
    1R01  A12f9 4857   1.724   4.662  -3.723 -0.5218  0.0344  0.4662
    1R01  A12fa 4858   1.623   4.697  -3.755 -1.7384 -0.5997  2.0614
    1R01  A12fb 4859   1.787   4.664  -3.812 -2.1817 -1.3378  1.3059
    1R01  A12fc 4860   2.026   4.655  -3.697  0.6400 -0.0915  0.1643
    1R01  A12fd 4861   2.049   4.719  -3.822  0.5787  0.0614 -0.2077
    1R01  A12fe 4862   2.034   4.833  -3.843  0.5676  2.0068  1.3419
    1R01  A12ff 4863   2.059   4.417  -4.040 -0.8998 -0.0211 -0.2377
    1R01  A1300 4864   2.064   4.513  -4.146  0.0170 -0.8164  0.6764
    1R01  A1301 4865   2.056   4.473  -4.292  0.1547 -1.0229  0.0018
    1R01  A1302 4866   2.050   4.538  -4.383  0.4761 -0.8186 -2.7718
    1R01  A1303 4867   2.042   4.328  -4.303  0.3540 -0.3919  0.5569
    1R01  A1304 4868   2.005   4.216  -4.397  0.0127 -0.9962  0.5958
    1R01  A1305 4869   1.900   4.236  -4.439 -2.7764 -0.2328  0.5724
    1R01  A1306 4870   2.007   4.113  -4.272 -0.5090 -0.4527 -0.5845
    1R01  A1307 4871   1.909   4.066  -4.248 -0.1447 -0.2624  0.3138
    1R01  A1308 4872   2.104   3.998  -4.318 -0.1044  0.0877 -0.0199
    1R01  A1309 4873   2.095   3.908  -4.265 -0.3390 -0.8972  0.2266
    1R01  A130a 4874   2.247   4.060  -4.331 -0.6985 -0.4152  0.3317
    1R01  A130b 4875   2.320   3.982  -4.348 -1.8670  2.2718 -0.8936
    1R01  A130c 4876   2.311   4.194  -4.269 -0.0601  0.3740  0.3526
    1R01  A130d 4877   2.322   4.247  -4.397 -0.1764  0.1271  0.5215
    1R01  A130e 4878   2.435   4.327  -4.433 -0.1357  0.2920 -0.2755
    1R01  A130f 4879   2.467   4.357  -4.574  0.4935 -0.2154  0.0630
    1R01  A1310 4880   2.567   4.399  -4.588  0.8596  0.8755 -0.0186
    1R01  A1311 4881   2.458   4.271  -4.640  1.4507 -1.1393  0.8014
    1R01  A1312 4882   2.402   4.435  -4.601  0.3158 -2.1383  0.1731
    1R01  A1313 4883   2.502   4.382  -4.323  0.1785  0.0133 -0.2750
    1R01  A1314 4884   2.489   4.332  -4.194 -0.6707  0.0582  0.2582
    1R01  A1315 4885   2.412   4.222  -4.169 -0.2816  0.0547 -0.2772
    1R01  A1316 4886   2.433   4.131  -4.049  0.5004  0.8133  1.2716
    1R01  A1317 4887   2.519   4.162  -3.982 -0.8255  1.8106  0.6705
    1R01  A1318 4888   2.449   4.034  -4.093  0.2520 -0.3573  2.6587
    1R01  A1319 4889   2.334   4.119  -3.996 -0.4735  1.0004 -0.5149
    1R01  A131a 4890   2.239   4.138  -4.465 -0.7511  0.1530  0.2990
    1R01  A131b 4891   2.298   4.095  -4.541  0.9450 -0.3551  0.4426
    1R01  A131c 4892   2.089   4.144  -4.516  0.0085  0.1312 -0.3063
    1R01  A131d 4893   2.063   4.186  -4.617 -0.1674 -1.0237  0.1196
    1R01  A131e 4894   2.059   3.989  -4.472 -0.1062 -0.3243  0.5032
    1R01  A131f 4895   2.122   3.911  -4.522  2.1671  1.0738 -1.3635
    1R01  A1320 4896   1.952   3.977  -4.482 -2.2125  0.8649  0.5829
    1R01  A1321 4897   2.034   4.242  -4.196 -0.1684 -0.4142  0.8660
    1R01  A1322 4898   2.045   4.277  -4.062  0.2726 -0.1078  0.1647
    1R01  A1323 4899   2.037   4.205  -3.984 -0.0623  0.8675  0.7762
    1R01  A1324 4900  -2.028   0.118  -4.946  0.3256 -0.4972  0.4438
    1R01  A1325 4901  -1.933   0.126  -4.891 -0.7137 -0.7539 -1.5565
    1R01  A1326 4902  -2.115   0.174  -4.905  1.3849  0.7694  4.0714
    1R01  A1327 4903  -2.048   0.009  -4.932  1.2123 -4.3818 -0.8573
    1R01  A1328 4904  -2.017   0.128  -5.103  0.3015  0.0832  0.5122
    1R01  A1329 4905  -1.955   0.271  -5.135 -0.4969 -0.2827  0.8206
    1R01  A132a 4906  -2.014   0.354  -5.096  0.7397  2.2875  3.1737
    1R01  A132b 4907  -1.866   0.279  -5.082  0.1535  0.0122 -1.6006
    1R01  A132c 4908  -1.929   0.295  -5.236  2.7563  1.4472 -0.6075
    1R01  A132d 4909  -2.160   0.106  -5.169  0.2096 -0.0927 -0.1727
    1R01  A132e 4910  -2.144   0.003  -5.270 -0.3365  0.2895 -0.1122
    1R01  A132f 4911  -2.257  -0.029  -5.360 -0.2938  0.2204  0.6824
    1R01  A1330 4912  -2.255  -0.089  -5.445  1.7011  0.9215 -1.6593
    1R01  A1331 4913  -2.366   0.057  -5.339 -0.2515  0.0682 -0.3037
    1R01  A1332 4914  -2.488   0.114  -5.416 -0.5728  0.0610 -0.1496
    1R01  A1333 4915  -2.573   0.054  -5.416  0.1298 -0.7734 -2.7663
    1R01  A1334 4916  -2.492   0.222  -5.301 -0.3949 -1.2741  0.2555
    1R01  A1335 4917  -2.576   0.213  -5.234 -1.0114  0.1869 -3.3123
    1R01  A1336 4918  -2.476   0.359  -5.375 -0.1649 -0.2309  0.1890
    1R01  A1337 4919  -2.435   0.441  -5.315  1.0270  1.9159  2.2249
    1R01  A1338 4920  -2.612   0.381  -5.436 -0.2539  0.5211  0.1795
    1R01  A1339 4921  -2.697   0.375  -5.369  1.1145 -0.7950  0.3326
    1R01  A133a 4922  -2.617   0.271  -5.556 -0.0470 -0.3448 -0.0614
    1R01  A133b 4923  -2.702   0.196  -5.551 -0.1888 -0.8382 -1.3408
    1R01  A133c 4924  -2.481   0.197  -5.550 -0.2819 -0.0604  0.3111
    1R01  A133d 4925  -2.445   0.138  -5.640  1.9385 -0.4729 -3.3913
    1R01  A133e 4926  -2.386   0.314  -5.502 -0.6327 -0.2323  0.6300
    1R01  A133f 4927  -2.285   0.284  -5.473 -3.2012  0.7032  0.9933
    1R01  A1340 4928  -2.372   0.397  -5.576  2.3971  0.0008 -0.6888
    1R01  A1341 4929  -2.378   0.147  -5.238 -0.4999 -0.6855  0.0289
    1R01  A1342 4930  -2.276   0.182  -5.153 -0.9698  0.0821 -0.2570
    1R01  A1343 4931  -2.278   0.271  -5.096 -2.9145 -2.3957 -2.0297
    1R01  A1344 4932  -2.010  -0.052  -5.257 -0.6800 -0.4190  0.4411
    1R01  A1345 4933  -1.932   0.026  -5.162  0.0050  0.8010  0.3689
    1R01  A1346 4934  -1.797   0.003  -5.132  0.5546 -1.1258 -0.5185
    1R01  A1347 4935  -1.742   0.048  -5.049  0.4610 -2.6249 -0.7492
    1R01  A1348 4936  -1.736  -0.092  -5.213 -0.2086  0.2601 -1.2608
    1R01  A1349 4937  -1.609  -0.182  -5.212 -0.5957 -0.3363  0.0583
    1R01  A134a 4938  -1.528  -0.136  -5.278  0.5647  0.4733 -1.5893
    1R01  A134b 4939  -1.696  -0.281  -5.300 -0.6240 -0.1108  0.9086
    1R01  A134c 4940  -1.650  -0.275  -5.407  1.2469  0.5075 -0.5578
    1R01  A134d 4941  -1.679  -0.419  -5.233  0.1531 -0.2487  0.1057
    1R01  A134e 4942  -1.697  -0.509  -5.297  2.9306 -0.6321 -1.3756
    1R01  A134f 4943  -1.758  -0.410  -5.103  1.0796 -0.0099 -0.0028
    1R01  A1350 4944  -1.862  -0.381  -5.106  1.0515  4.4889  0.4809
    1R01  A1351 4945  -1.732  -0.508  -4.988 -0.1887  0.4129 -0.0995
    1R01  A1352 4946  -1.671  -0.419  -4.908 -0.2917 -0.1517  1.0366
    1R01  A1353 4947  -1.637  -0.439  -4.775 -0.2116 -0.5991  0.1387
    1R01  A1354 4948  -1.567  -0.339  -4.687 -0.8944 -0.0025  0.4988
    1R01  A1355 4949  -1.551  -0.249  -4.756 -0.6840 -0.1003 -1.6418
    1R01  A1356 4950  -1.471  -0.366  -4.634  0.0087  0.7982  1.4726
    1R01  A1357 4951  -1.614  -0.308  -4.598  0.5518  1.4005  1.7556
    1R01  A1358 4952  -1.686  -0.565  -4.726 -0.0425 -0.0042 -0.2168
    1R01  A1359 4953  -1.740  -0.662  -4.807 -0.0643 -0.2067 -0.2667
    1R01  A135a 4954  -1.771  -0.643  -4.946  0.1189 -0.4352 -0.6096
    1R01  A135b 4955  -1.824  -0.748  -5.038  0.0866 -0.1721 -1.0355
    1R01  A135c 4956  -1.773  -0.834  -5.001 -2.6735  1.2221 -1.8704
    1R01  A135d 4957  -1.929  -0.764  -5.029 -0.2444 -0.6373 -2.0720
    1R01  A135e 4958  -1.792  -0.721  -5.142  1.3138  0.0488 -0.5359
    1R01  A135f 4959  -1.676  -0.311  -5.014  0.3399  0.3498  0.9012
    1R01  A1360 4960  -1.730  -0.230  -4.977  0.2099  0.9765 -1.5905
    1R01  A1361 4961  -1.549  -0.263  -5.097  0.4434 -0.0521  0.8992
    1R01  A1362 4962  -1.468  -0.219  -5.037  0.6765  1.2597 -1.7102
    1R01  A1363 4963  -1.529  -0.395  -5.182 -0.3313  0.1742 -0.2704
    1R01  A1364 4964  -1.455  -0.372  -5.257 -0.7231  0.0925  0.5365
    1R01  A1365 4965  -1.488  -0.475  -5.128 -0.0589  2.1105  0.8236
    1R01  A1366 4966  -1.809  -0.178  -5.282 -0.3534 -0.6471 -0.5234
    1R01  A1367 4967  -1.951  -0.167  -5.306 -0.3416 -0.8576  0.1136
    1R01  A1368 4968  -1.997  -0.235  -5.372  1.1925 -0.2415  0.4499
    1R01  A1369 4969  -3.819   2.448  -6.275  0.9336  0.3765 -1.2659
    1R01  A136a 4970  -3.860   2.444  -6.381  1.0990  0.5021 -1.7148
    1R01  A136b 4971  -3.892   2.402  -6.210  0.0704 -1.3507 -2.6019
    1R01  A136c 4972  -3.727   2.385  -6.274  1.9490  0.2265  0.8687
    1R01  A136d 4973  -3.783   2.595  -6.233 -0.0970  0.5462  0.1185
    1R01  A136e 4974  -3.911   2.670  -6.230 -0.3730  1.2634 -0.5812
    1R01  A136f 4975  -3.967   2.681  -6.320 -0.2300  1.3479  0.2767
    1R01  A1370 4976  -3.981   2.627  -6.156 -3.7374  1.7402  0.1239
    1R01  A1371 4977  -3.879   2.771  -6.199 -0.4094  1.0521  0.1387
    1R01  A1372 4978  -3.684   2.659  -6.329 -0.1470  0.3996  0.2958
    1R01  A1373 4979  -3.568   2.689  -6.259  0.2027 -0.5685  0.5437
    1R01  A1374 4980  -3.452   2.742  -6.324 -0.0339  0.3063  0.5164
    1R01  A1375 4981  -3.353   2.753  -6.274 -2.0790  2.5821 -3.3686
    1R01  A1376 4982  -3.461   2.762  -6.461  0.8636  0.0754 -0.0059
    1R01  A1377 4983  -3.374   2.762  -6.583  0.2660 -0.0922  0.1996
    1R01  A1378 4984  -3.300   2.678  -6.565  1.9088 -0.5823 -2.4430
    1R01  A1379 4985  -3.497   2.703  -6.657 -0.9155  0.5584  0.0601
    1R01  A137a 4986  -3.502   2.596  -6.694 -2.4623 -3.3922  0.7597
    1R01  A137b 4987  -3.519   2.804  -6.779  0.1246 -0.1912 -0.0625
    1R01  A137c 4988  -3.613   2.815  -6.831 -0.9248 -1.0494 -0.0976
    1R01  A137d 4989  -3.386   2.764  -6.852 -0.0568  0.1529  0.5865
    1R01  A137e 4990  -3.376   2.658  -6.859  0.1321 -0.7479 -0.6835
    1R01  A137f 4991  -3.265   2.829  -6.775 -0.0635 -0.5611 -0.2377
    1R01  A1380 4992  -3.186   2.756  -6.753 -2.4481  1.2460  1.2687
    1R01  A1381 4993  -3.327   2.892  -6.653 -0.4847  0.3079 -0.3565
    1R01  A1382 4994  -3.273   2.967  -6.595 -0.2400 -0.2531  1.7626
    1R01  A1383 4995  -3.470   2.943  -6.706 -0.2558 -0.1052 -0.2677
    1R01  A1384 4996  -3.529   2.981  -6.626  0.9450 -1.0316 -1.2548
    1R01  A1385 4997  -3.454   3.029  -6.780  1.9376  1.3665 -0.6270
    1R01  A1386 4998  -3.573   2.715  -6.531 -0.0995  0.0969 -0.7338
    1R01  A1387 4999  -3.683   2.656  -6.472 -0.5833 -0.6831 -0.1553
    1R01  A1388 5000  -3.764   2.613  -6.530 -0.7830  1.2023 -2.5603
    1R01  A1389 5001  -3.582   2.646  -6.113 -0.2177  0.0645  0.2578
    1R01  A138a 5002  -3.715   2.590  -6.099  0.4457 -0.5655 -0.1376
    1R01  A138b 5003  -3.747   2.510  -5.990  0.0008 -1.3893 -0.9086
    1R01  A138c 5004  -3.841   2.464  -5.977  0.9949  1.4786 -1.4228
    1R01  A138d 5005  -3.646   2.482  -5.894  0.7493  0.2943  0.4877
    1R01  A138e 5006  -3.606   2.405  -5.765 -0.4779  0.4868  0.1294
    1R01  A138f 5007  -3.680   2.429  -5.691 -1.1885  1.7626  1.0882
    1R01  A1390 5008  -3.476   2.497  -5.766 -0.2620 -0.4769  0.1946
    1R01  A1391 5009  -3.470   2.575  -5.692  0.9049  0.0676 -0.1912
    1R01  A1392 5010  -3.356   2.405  -5.735 -0.0733  1.2186  0.4136
    1R01  A1393 5011  -3.276   2.452  -5.689  0.2371  2.3706  2.1661
    1R01  A1394 5012  -3.337   2.317  -5.863 -0.4283 -0.7512  0.0397
    1R01  A1395 5013  -3.252   2.252  -5.859  0.9861  0.2792 -0.8641
    1R01  A1396 5014  -3.356   2.359  -6.010 -0.0201  0.5219 -0.6042
    1R01  A1397 5015  -3.467   2.276  -6.024  0.3812  0.5055  0.2410
    1R01  A1398 5016  -3.520   2.238  -6.147  0.1095 -0.5259 -0.0718
    1R01  A1399 5017  -3.623   2.127  -6.172  0.1266 -0.4987  0.2753
    1R01  A139a 5018  -3.593   2.033  -6.152 -1.1999 -1.0057 -1.8913
    1R01  A139b 5019  -3.641   2.125  -6.284 -3.5814 -3.4425  0.7189
    1R01  A139c 5020  -3.715   2.130  -6.116 -0.7376  0.3785 -2.0097
    1R01  A139d 5021  -3.456   2.309  -6.248 -0.6160  0.0871 -0.8135
    1R01  A139e 5022  -3.355   2.405  -6.232  0.1564 -0.6072 -0.2831
    1R01  A139f 5023  -3.294   2.431  -6.107 -0.8096  0.2128  0.6353
    1R01  A13a0 5024  -3.157   2.499  -6.088 -0.3137 -0.5421 -0.1001
    1R01  A13a1 5025  -3.085   2.422  -6.062 -1.8822  0.2531 -0.7005
    1R01  A13a2 5026  -3.119   2.539  -6.180  0.0670 -0.0601  0.8197
    1R01  A13a3 5027  -3.159   2.585  -6.019 -0.2529  0.3259 -1.0012
    1R01  A13a4 5028  -3.462   2.226  -5.881 -0.1986 -0.3611 -0.1329
    1R01  A13a5 5029  -3.436   2.123  -5.869 -1.5124  1.7141 -0.3285
    1R01  A13a6 5030  -3.554   2.258  -5.758 -0.6965  0.4857  0.3751
    1R01  A13a7 5031  -3.629   2.188  -5.728  1.0587  1.0664 -0.3678
    1R01  A13a8 5032  -3.439   2.289  -5.649 -0.0155 -0.2766 -0.0373
    1R01  A13a9 5033  -3.384   2.202  -5.621  0.7782  0.6222  1.4392
    1R01  A13aa 5034  -3.469   2.334  -5.555  0.7964  0.7371 -0.4329
    1R01  A13ab 5035  -3.531   2.557  -5.896  0.0137  0.8465 -0.1096
    1R01  A13ac 5036  -3.493   2.646  -6.002  0.0614  0.0646  0.6578
    1R01  A13ad 5037  -3.390   2.691  -6.000 -1.1800  3.0349  1.9696
    1R01  A13ae 5038  -4.448  -0.373  -5.709  0.1796  0.7845  0.1419
    1R01  A13af 5039  -4.528  -0.366  -5.778  1.3668 -0.4664  0.0504
    1R01  A13b0 5040  -4.357  -0.355  -5.774 -1.0407  0.5864  1.7929
    1R01  A13b1 5041  -4.439  -0.299  -5.633  2.6265 -0.2863  2.3103
    1R01  A13b2 5042  -4.451  -0.520  -5.661 -0.3154 -1.2209  0.0579
    1R01  A13b3 5043  -4.475  -0.617  -5.775  1.7446  0.4196 -0.5557
    1R01  A13b4 5044  -4.578  -0.599  -5.821  1.0876  0.2861 -5.2847
    1R01  A13b5 5045  -4.460  -0.719  -5.744  1.5886  1.3465 -1.1306
    1R01  A13b6 5046  -4.409  -0.599  -5.858 -1.6696  1.0078  0.6888
    1R01  A13b7 5047  -4.562  -0.544  -5.553  0.2523  0.0479 -0.2316
    1R01  A13b8 5048  -4.511  -0.621  -5.442 -0.2417  1.0362  0.2886
    1R01  A13b9 5049  -4.589  -0.663  -5.335 -0.4527 -0.0905  0.0552
    1R01  A13ba 5050  -4.547  -0.714  -5.248 -3.1785 -0.2164  2.8013
    1R01  A13bb 5051  -4.725  -0.625  -5.338 -0.0479 -0.1922 -0.4136
    1R01  A13bc 5052  -4.816  -0.561  -5.232 -0.1868 -0.0848 -0.6456
    1R01  A13bd 5053  -4.753  -0.503  -5.165 -1.4521  1.0070  1.3676
    1R01  A13be 5054  -4.876  -0.472  -5.355  0.5221 -0.0324 -0.2447
    1R01  A13bf 5055  -4.855  -0.364  -5.352  1.6772 -1.6319 -0.5948
    1R01  A13c0 5056  -5.027  -0.509  -5.343 -0.0893  0.8298 -0.0395
    1R01  A13c1 5057  -5.091  -0.482  -5.426  0.5595  0.9989 -2.0514
    1R01  A13c2 5058  -5.062  -0.438  -5.214 -0.0151 -0.5741  0.5817
    1R01  A13c3 5059  -5.017  -0.333  -5.218  0.0401  1.9879 -0.6067
    1R01  A13c4 5060  -5.004  -0.514  -5.090  0.1687 -0.1914 -0.3912
    1R01  A13c5 5061  -4.927  -0.458  -5.028  0.3342  1.5368  0.7255
    1R01  A13c6 5062  -4.932  -0.637  -5.159 -0.5690  0.9129 -0.2061
    1R01  A13c7 5063  -4.907  -0.723  -5.098  0.9455 -0.4544 -2.0152
    1R01  A13c8 5064  -5.021  -0.655  -5.280 -0.5045  0.2532  0.2443
    1R01  A13c9 5065  -5.113  -0.704  -5.253  0.6247 -1.9697 -1.3646
    1R01  A13ca 5066  -4.971  -0.718  -5.347  0.4650 -1.2754  1.9814
    1R01  A13cb 5067  -4.777  -0.550  -5.440 -0.0748  0.1264 -0.2488
    1R01  A13cc 5068  -4.692  -0.504  -5.554  0.0708  0.5568 -1.1145
    1R01  A13cd 5069  -4.727  -0.439  -5.631 -2.1963 -0.1083 -0.1059
    1R01  A13ce 5070  -4.366  -0.626  -5.458 -0.5852 -1.1019  0.7478
    1R01  A13cf 5071  -4.326  -0.558  -5.583 -0.4194 -0.4716  0.1354
    1R01  A13d0 5072  -4.193  -0.493  -5.595  0.3931 -0.1009 -0.1946
    1R01  A13d1 5073  -4.162  -0.419  -5.667 -2.9213 -0.2349  0.5556
    1R01  A13d2 5074  -4.110  -0.532  -5.489 -0.3189 -0.3123  0.3947
    1R01  A13d3 5075  -3.990  -0.467  -5.419 -0.1698  0.0365 -0.7291
    1R01  A13d4 5076  -3.998  -0.363  -5.387 -0.0182  0.3983  0.5133
    1R01  A13d5 5077  -4.028  -0.568  -5.303 -0.0953 -0.1137  0.1306
    1R01  A13d6 5078  -4.064  -0.521  -5.217  2.0650 -0.3855 -1.8010
    1R01  A13d7 5079  -3.906  -0.663  -5.282 -0.0406 -0.2172 -0.1174
    1R01  A13d8 5080  -3.919  -0.758  -5.241  1.0013 -1.4837 -3.0691
    1R01  A13d9 5081  -3.799  -0.565  -5.213 -0.3495  0.2720  0.2959
    1R01  A13da 5082  -3.717  -0.625  -5.179 -1.9976  1.2058  0.2867
    1R01  A13db 5083  -3.805  -0.433  -5.130 -0.1977 -0.1823 -0.0062
    1R01  A13dc 5084  -3.762  -0.349  -5.234 -0.1362  0.5073 -0.1621
    1R01  A13dd 5085  -3.796  -0.212  -5.232  0.2110  0.3256 -0.0740
    1R01  A13de 5086  -3.771  -0.133  -5.354 -0.0973 -0.6996 -0.1346
    1R01  A13df 5087  -3.684  -0.067  -5.344  2.6123  0.2737  1.0246
    1R01  A13e0 5088  -3.745  -0.199  -5.429  1.7937  0.7301 -2.2648
    1R01  A13e1 5089  -3.855  -0.079  -5.397 -0.1480 -0.5356 -1.5017
    1R01  A13e2 5090  -3.859  -0.164  -5.112 -0.7300  1.2779 -0.6052
    1R01  A13e3 5091  -3.897  -0.255  -5.011 -0.3519 -0.3821  0.2588
    1R01  A13e4 5092  -3.888  -0.397  -5.025 -0.5160  0.2488  0.1868
    1R01  A13e5 5093  -3.968  -0.489  -4.941 -0.6736 -0.4001 -0.2844
    1R01  A13e6 5094  -4.039  -0.551  -5.002 -1.2506 -1.7147  0.8786
    1R01  A13e7 5095  -3.898  -0.564  -4.890  1.2250 -0.4804 -2.0651
    1R01  A13e8 5096  -4.018  -0.441  -4.858 -0.4852  2.6425 -1.6962
    1R01  A13e9 5097  -3.756  -0.467  -5.337  0.2482  0.2085  0.2047
    1R01  A13ea 5098  -3.655  -0.487  -5.373 -1.2508 -0.9309  0.0151
    1R01  A13eb 5099  -3.850  -0.501  -5.461 -0.0116  0.3836 -0.6459
    1R01  A13ec 5100  -3.822  -0.459  -5.560 -1.3032 -2.6281 -1.7717
    1R01  A13ed 5101  -3.854  -0.657  -5.439  0.1842  0.8266  0.4596
    1R01  A13ee 5102  -3.929  -0.706  -5.500  0.0412  4.4510  2.8884
    1R01  A13ef 5103  -3.760  -0.717  -5.446 -0.5746 -0.6342 -3.7591
    1R01  A13f0 5104  -4.141  -0.615  -5.385  0.1543 -0.2011  0.3290
    1R01  A13f1 5105  -4.274  -0.646  -5.356 -0.0114 -0.3492  0.5062
    1R01  A13f2 5106  -4.291  -0.679  -5.256  0.8624  1.2859 -1.1292
    1R01  A13f3 5107   2.066   3.827  -4.877  0.0568 -0.2342 -0.4629
    1R01  A13f4 5108   1.997   3.780  -4.952 -0.0823  1.4829 -2.6675
    1R01  A13f5 5109   2.146   3.758  -4.858 -0.4960 -2.2444  3.6598
    1R01  A13f6 5110   2.025   3.847  -4.773 -0.9613 -0.4284  0.2474
    1R01  A13f7 5111   2.111   3.964  -4.932  0.3987 -0.3483 -0.2773
    1R01  A13f8 5112   2.225   4.023  -4.848  0.0809 -0.4172  0.2665
    1R01  A13f9 5113   2.305   3.955  -4.824 -0.7341 -2.0130  1.3846
    1R01  A13fa 5114   2.186   4.058  -4.756  0.1564  4.3657 -2.4496
    1R01  A13fb 5115   2.269   4.107  -4.901 -0.7174 -1.0155 -3.3062
    1R01  A13fc 5116   1.985   4.052  -4.936 -0.3248 -0.8889 -0.5112
    1R01  A13fd 5117   1.992   4.114  -5.063  0.4227 -0.5605 -0.3329
    1R01  A13fe 5118   1.929   4.243  -5.088 -0.0347  0.2410 -0.4749
    1R01  A13ff 5119   1.946   4.306  -5.179 -2.5811  2.9648  0.1613
    1R01  A1400 5120   1.854   4.294  -4.980 -0.6097  0.1442  0.0872
    1R01  A1401 5121   1.798   4.425  -4.927 -0.3919  0.6861 -0.3988
    1R01  A1402 5122   1.706   4.450  -4.983  0.3584 -0.9377 -1.0452
    1R01  A1403 5123   1.792   4.356  -4.783  0.2391  0.8161  0.1052
    1R01  A1404 5124   1.688   4.327  -4.745  0.0645 -0.7883  3.4527
    1R01  A1405 5125   1.874   4.447  -4.685  0.0309  0.2496  0.6567
    1R01  A1406 5126   1.918   4.395  -4.597  0.3086  1.5704  0.0774
    1R01  A1407 5127   1.766   4.562  -4.681 -0.3847 -0.2683  0.4933
    1R01  A1408 5128   1.666   4.523  -4.672  0.5361  0.2421 -1.4760
    1R01  A1409 5129   1.784   4.644  -4.817  0.2126  0.5958 -0.0701
    1R01  A140a 5130   1.690   4.654  -4.868  0.6391  0.2430 -0.9731
    1R01  A140b 5131   1.878   4.557  -4.908  0.3745 -0.2082  0.0366
    1R01  A140c 5132   1.921   4.601  -4.993 -2.5551  0.8839  1.6460
    1R01  A140d 5133   1.979   4.513  -4.782 -0.5064  0.2419  0.3090
    1R01  A140e 5134   2.057   4.439  -4.811 -0.9402  2.2862  0.4347
    1R01  A140f 5135   2.036   4.593  -4.725  0.3961 -2.1934 -0.9537
    1R01  A1410 5136   1.860   4.235  -4.855  0.4270  0.4993 -0.3855
    1R01  A1411 5137   1.917   4.112  -4.831  0.6129  0.1047  0.3278
    1R01  A1412 5138   1.907   4.073  -4.725  0.1966  1.4805  0.3021
    1R01  A1413 5139   2.090   4.048  -5.151 -0.2200 -0.7535  0.6231
    1R01  A1414 5140   2.163   3.949  -5.078  0.1841 -0.0991 -0.0677
    1R01  A1415 5141   2.275   3.878  -5.132  0.3912  0.1777  0.2590
    1R01  A1416 5142   2.342   3.817  -5.073  0.2631 -0.9633 -1.0087
    1R01  A1417 5143   2.296   3.906  -5.267  0.5981 -0.1935  0.0128
    1R01  A1418 5144   2.397   3.897  -5.373  0.0808 -0.7037  0.5408
    1R01  A1419 5145   2.482   3.970  -5.352  2.1530 -0.1629  1.3083
    1R01  A141a 5146   2.289   3.966  -5.468  1.1354 -0.2918 -0.4703
    1R01  A141b 5147   2.326   4.059  -5.507  0.2993 -0.2306  2.2284
    1R01  A141c 5148   2.274   3.854  -5.581 -0.1263 -0.5164 -0.1611
    1R01  A141d 5149   2.227   3.891  -5.670  1.9656 -1.8162 -0.4211
    1R01  A141e 5150   2.223   3.721  -5.527 -0.5880  0.1057 -0.4753
    1R01  A141f 5151   2.199   3.649  -5.607 -1.7605 -0.0443  0.8268
    1R01  A1420 5152   2.125   3.683  -5.413  0.3581 -0.4789  0.3392
    1R01  A1421 5153   2.226   3.643  -5.327  0.4908  0.0003  0.3040
    1R01  A1422 5154   2.205   3.542  -5.228 -0.3375 -0.3760  1.0364
    1R01  A1423 5155   2.314   3.458  -5.161  0.3590  0.5486  0.3992
    1R01  A1424 5156   2.394   3.425  -5.226  1.1987  0.5596  1.6775
    1R01  A1425 5157   2.267   3.363  -5.135  1.3790 -1.3261 -2.7535
    1R01  A1426 5158   2.346   3.501  -5.063 -1.6400 -1.2740 -0.3454
    1R01  A1427 5159   2.073   3.503  -5.217 -0.0321 -0.1192  0.3148
    1R01  A1428 5160   1.975   3.549  -5.304  0.2060 -0.0012 -0.0152
    1R01  A1429 5161   1.997   3.631  -5.410 -0.0990  0.6302  0.5825
    1R01  A142a 5162   1.913   3.640  -5.529 -0.3682  1.2806 -0.7512
    1R01  A142b 5163   1.944   3.718  -5.595 -0.8534  1.1101  0.5610
    1R01  A142c 5164   1.813   3.661  -5.497 -1.2134  0.7385  0.6243
    1R01  A142d 5165   1.897   3.538  -5.580 -0.0281 -0.9095 -0.6930
    1R01  A142e 5166   2.334   3.662  -5.434  0.1860 -0.0701 -0.3248
    1R01  A142f 5167   2.379   3.571  -5.469  0.1210  0.6088 -0.8246
    1R01  A1430 5168   2.451   3.769  -5.433 -0.3711 -0.5393 -1.3216
    1R01  A1431 5169   2.554   3.744  -5.404 -0.4318 -3.2251 -0.6675
    1R01  A1432 5170   2.432   3.816  -5.583 -0.3848  0.2788  0.4391
    1R01  A1433 5171   2.452   3.744  -5.661  1.3128 -1.4519 -0.9256
    1R01  A1434 5172   2.499   3.897  -5.615 -1.8244  0.4544 -0.6877
    1R01  A1435 5173   2.207   3.977  -5.343  0.7898 -0.3277 -0.0158
    1R01  A1436 5174   2.110   4.067  -5.286 -0.3523 -0.0780 -0.5108
    1R01  A1437 5175   2.047   4.133  -5.348  2.5928  0.2515 -1.1560
    1R01  A1438 5176  -3.671  -2.799  -5.607  0.0655 -0.1583  0.0443
    1R01  A1439 5177  -3.596  -2.840  -5.539 -0.9744 -1.8293 -0.2262
    1R01  A143a 5178  -3.685  -2.863  -5.698 -0.8043  0.2154 -1.9464
    1R01  A143b 5179  -3.760  -2.814  -5.550 -0.1726 -0.0212 -2.8788
    1R01  A143c 5180  -3.658  -2.651  -5.653  0.0518  0.0641  0.2050
    1R01  A143d 5181  -3.559  -2.655  -5.770  0.0970 -0.0766  1.4140
    1R01  A143e 5182  -3.605  -2.704  -5.854  1.6791 -1.3932  0.4047
    1R01  A143f 5183  -3.471  -2.725  -5.752 -0.4469 -1.6641  2.3543
    1R01  A1440 5184  -3.520  -2.553  -5.807 -0.1572  0.6025 -2.6596
    1R01  A1441 5185  -3.602  -2.553  -5.543 -0.5100  0.5690  0.2782
    1R01  A1442 5186  -3.708  -2.463  -5.530  0.0877  0.3430 -0.3972
    1R01  A1443 5187  -3.695  -2.367  -5.423  0.2153  0.0064 -0.0329
    1R01  A1444 5188  -3.782  -2.300  -5.396  0.6379  1.7894 -1.1942
    1R01  A1445 5189  -3.572  -2.372  -5.350 -0.4253  0.1261  0.1993
    1R01  A1446 5190  -3.513  -2.328  -5.220 -0.8296 -0.2146  0.4986
    1R01  A1447 5191  -3.580  -2.350  -5.139  2.4282 -2.8651 -3.4977
    1R01  A1448 5192  -3.397  -2.431  -5.251  0.1711  0.3050 -0.2708
    1R01  A1449 5193  -3.394  -2.526  -5.192 -1.1288 -1.4099 -0.9596
    1R01  A144a 5194  -3.260  -2.355  -5.248  0.1598 -0.5366  0.4238
    1R01  A144b 5195  -3.184  -2.397  -5.310  0.3668  1.6712  4.5468
    1R01  A144c 5196  -3.242  -2.335  -5.097 -0.2502  0.4432 -0.0892
    1R01  A144d 5197  -3.234  -2.434  -5.046 -2.0182  0.2602  0.6867
    1R01  A144e 5198  -3.358  -2.240  -5.047 -0.3559  0.1161  0.6484
    1R01  A144f 5199  -3.424  -2.286  -4.977 -0.7149 -1.1951 -0.8194
    1R01  A1450 5200  -3.431  -2.193  -5.189 -0.4708  0.4766  0.2778
    1R01  A1451 5201  -3.490  -2.098  -5.194  0.3699 -1.5429 -1.8783
    1R01  A1452 5202  -3.311  -2.207  -5.291 -0.2165  1.0801  0.1143
    1R01  A1453 5203  -3.344  -2.200  -5.396  1.8001  1.2736 -0.5760
    1R01  A1454 5204  -3.233  -2.122  -5.279  0.1271 -0.3948  1.8827
    1R01  A1455 5205  -3.475  -2.460  -5.377 -0.6855 -0.0788  0.7952
    1R01  A1456 5206  -3.480  -2.553  -5.476 -0.0560  0.8243 -0.5572
    1R01  A1457 5207  -3.399  -2.624  -5.489  0.0667  2.4237 -2.4472
    1R01  A1458 5208  -3.804  -2.467  -5.646  0.3922  0.3163 -0.1191
    1R01  A1459 5209  -3.789  -2.595  -5.707 -0.0254 -0.1247 -0.1251
    1R01  A145a 5210  -3.889  -2.647  -5.798  0.1748 -0.1452 -0.6898
    1R01  A145b 5211  -3.886  -2.748  -5.831  0.6647  0.5520 -1.2011
    1R01  A145c 5212  -3.986  -2.558  -5.837 -0.9407 -0.4660 -0.5615
    1R01  A145d 5213  -4.136  -2.557  -5.863  0.2475 -0.4438  0.3297
    1R01  A145e 5214  -4.183  -2.618  -5.781 -2.6463  1.8410  2.4604
    1R01  A145f 5215  -4.133  -2.403  -5.825 -0.8608  0.0555  0.1183
    1R01  A1460 5216  -4.181  -2.387  -5.732  2.8551  0.7827 -0.2217
    1R01  A1461 5217  -4.194  -2.337  -5.947  0.6829 -0.2406 -0.1353
    1R01  A1462 5218  -4.180  -2.230  -5.954 -0.1992 -3.7553  0.4568
    1R01  A1463 5219  -4.341  -2.385  -5.915  0.0414 -0.1238 -0.2603
    1R01  A1464 5220  -4.412  -2.326  -5.972  3.1835 -0.4406 -1.1023
    1R01  A1465 5221  -4.412  -2.437  -5.780  0.7403 -0.1004  0.2852
    1R01  A1466 5222  -4.415  -2.563  -5.824  0.6183 -0.0079  0.2113
    1R01  A1467 5223  -4.509  -2.652  -5.770  1.2256  0.1811 -0.4139
    1R01  A1468 5224  -4.545  -2.775  -5.841  0.1859  0.2516  0.3487
    1R01  A1469 5225  -4.607  -2.756  -5.934 -1.8277  0.6692 -0.7078
    1R01  A146a 5226  -4.455  -2.833  -5.869  0.3427 -3.5222 -0.8947
    1R01  A146b 5227  -4.609  -2.838  -5.778 -0.6920  0.4795 -0.5925
    1R01  A146c 5228  -4.585  -2.605  -5.662  0.2125  0.8283 -0.4345
    1R01  A146d 5229  -4.586  -2.471  -5.632  0.7121 -0.4835  0.0818
    1R01  A146e 5230  -4.506  -2.378  -5.695  0.6013 -0.3901 -0.3245
    1R01  A146f 5231  -4.539  -2.235  -5.700  0.4254 -0.8266  0.1193
    1R01  A1470 5232  -4.595  -2.213  -5.790  3.5360  1.1608 -0.0105
    1R01  A1471 5233  -4.446  -2.178  -5.684  0.8909  0.1155  0.0687
    1R01  A1472 5234  -4.593  -2.199  -5.608 -0.0391  0.0380  0.1079
    1R01  A1473 5235  -4.344  -2.539  -5.958  0.5724 -0.7346 -0.1522
    1R01  A1474 5236  -4.410  -2.551  -6.045 -0.6812  1.6080 -0.6579
    1R01  A1475 5237  -4.206  -2.576  -6.001  0.2462  0.0461  0.0578
    1R01  A1476 5238  -4.191  -2.663  -6.064  1.3278  0.8581 -1.6487
    1R01  A1477 5239  -4.159  -2.442  -6.067  0.3109 -0.2267  0.1511
    1R01  A1478 5240  -4.213  -2.426  -6.162 -0.4965 -1.5315 -0.3325
    1R01  A1479 5241  -4.047  -2.445  -6.087  0.6434  0.5833  1.9632
    1R01  A147a 5242  -3.990  -2.430  -5.790  0.2407 -0.4618  0.3126
    1R01  A147b 5243  -3.909  -2.380  -5.685 -0.0810 -0.8371  0.1130
    1R01  A147c 5244  -3.931  -2.283  -5.643  1.6803 -0.8284 -0.2401
    1R01  A147d 5245   3.012   5.877   1.309 -0.0623  0.7408  0.1714
    1R01  A147e 5246   3.120   5.878   1.328  0.2686 -0.4579  1.1918
    1R01  A147f 5247   3.002   5.860   1.201  0.9860  1.2489 -1.3473
    1R01  A1480 5248   2.986   5.788   1.366  0.6995 -0.7329  4.5639
    1R01  A1481 5249   2.939   6.003   1.348  0.5797 -0.3375 -0.1499
    1R01  A1482 5250   2.935   6.019   1.500  0.0595 -0.1636  0.7384
    1R01  A1483 5251   2.910   5.929   1.556 -0.8335 -2.1654  0.3218
    1R01  A1484 5252   3.027   6.067   1.541  0.2439 -0.8784 -2.3831
    1R01  A1485 5253   2.860   6.096   1.524  3.1254  0.8237 -0.4258
    1R01  A1486 5254   2.794   6.010   1.285 -0.6700 -0.3892 -0.8999
    1R01  A1487 5255   2.807   6.114   1.189  1.0623 -0.6132  0.6955
    1R01  A1488 5256   2.703   6.132   1.091  0.1084 -0.0978  0.4340
    1R01  A1489 5257   2.716   6.195   1.004  0.1413 -1.2851 -0.1687
    1R01  A148a 5258   2.591   6.045   1.103  0.4351 -0.1817  1.2060
    1R01  A148b 5259   2.478   5.997   1.010  0.7174  0.1839  0.1845
    1R01  A148c 5260   2.511   5.964   0.917 -1.0039 -1.7885  0.3562
    1R01  A148d 5261   2.485   5.875   1.116 -0.7748  0.3223  0.3529
    1R01  A148e 5262   2.529   5.785   1.066  1.0102 -0.1641 -0.3743
    1R01  A148f 5263   2.340   5.849   1.171  0.1577  0.0559  0.8980
    1R01  A1490 5264   2.340   5.791   1.265  0.9149 -1.8448  0.5170
    1R01  A1491 5265   2.264   5.793   1.058 -0.3950  0.5586 -0.2920
    1R01  A1492 5266   2.168   5.735   1.086 -1.2164 -0.8592  1.4278
    1R01  A1493 5267   2.242   5.906   0.954 -0.2177  0.0334  0.4027
    1R01  A1494 5268   2.276   5.863   0.857  1.4046 -0.8740 -3.7779
    1R01  A1495 5269   2.323   6.025   1.014  0.1387 -0.3527 -0.0505
    1R01  A1496 5270   2.305   6.128   0.984 -0.2511  0.7316 -0.2770
    1R01  A1497 5271   2.289   5.989   1.164 -0.9900  0.1430 -0.0404
    1R01  A1498 5272   2.350   6.054   1.231 -1.3190  1.3609 -0.6530
    1R01  A1499 5273   2.189   5.996   1.190 -0.4266  0.1930 -0.4198
    1R01  A149a 5274   2.586   5.945   1.196 -0.7703  0.1209  0.7009
    1R01  A149b 5275   2.690   5.912   1.283  0.3216  0.4315 -0.3099
    1R01  A149c 5276   2.709   5.812   1.322  0.3316  3.5812 -0.4637
    1R01  A149d 5277   2.932   6.187   1.191  0.3452  0.0654 -0.0279
    1R01  A149e 5278   3.017   6.124   1.280  0.5118 -0.0943 -0.0662
    1R01  A149f 5279   3.158   6.155   1.290 -0.4056  0.0461  0.0046
    1R01  A14a0 5280   3.224   6.099   1.358  2.8897  0.7471  0.8830
    1R01  A14a1 5281   3.193   6.266   1.218 -0.0077  0.4717 -0.2196
    1R01  A14a2 5282   3.318   6.342   1.173  0.0262  0.1308  0.8294
    1R01  A14a3 5283   3.362   6.408   1.248  1.6176  0.5899  1.9573
    1R01  A14a4 5284   3.215   6.428   1.076  0.8446 -0.3622  0.2898
    1R01  A14a5 5285   3.184   6.528   1.108 -0.3330 -0.7856  1.5303
    1R01  A14a6 5286   3.279   6.421   0.936 -0.0184 -0.0930  0.2541
    1R01  A14a7 5287   3.234   6.495   0.862  1.5394 -0.2697 -0.1912
    1R01  A14a8 5288   3.249   6.273   0.900  0.1493 -0.0853  0.3794
    1R01  A14a9 5289   3.140   6.247   0.903  0.7929 -0.8488 -2.1318
    1R01  A14aa 5290   3.304   6.201   0.783 -0.8913 -0.4807  0.0673
    1R01  A14ab 5291   3.393   6.124   0.861 -0.1481  0.0916  0.2537
    1R01  A14ac 5292   3.450   5.998   0.815  0.2821 -0.2513  0.3008
    1R01  A14ad 5293   3.524   5.893   0.892  0.7167  0.6386 -0.4668
    1R01  A14ae 5294   3.624   5.899   0.859 -1.0568  0.6775 -0.0130
    1R01  A14af 5295   3.515   5.916   0.998 -1.1242 -0.8972 -0.4138
    1R01  A14b0 5296   3.485   5.796   0.859 -1.4660  0.4434 -1.6161
    1R01  A14b1 5297   3.401   5.971   0.684 -0.0457 -0.4324  0.0940
    1R01  A14b2 5298   3.326   6.048   0.600 -0.1492  0.1371 -0.1936
    1R01  A14b3 5299   3.266   6.169   0.650 -0.1146  0.5317 -0.5637
    1R01  A14b4 5300   3.155   6.239   0.582  0.2960  0.6646 -1.0111
    1R01  A14b5 5301   3.070   6.252   0.648  2.1849 -2.5296 -1.4730
    1R01  A14b6 5302   3.174   6.342   0.550  1.1945  0.6244  0.0595
    1R01  A14b7 5303   3.122   6.172   0.504 -1.6613 -1.2093 -0.7719
    1R01  A14b8 5304   3.354   6.186   0.988  0.5826 -0.3491  0.4917
    1R01  A14b9 5305   3.300   6.114   1.047  1.2073 -2.0648  0.8417
    1R01  A14ba 5306   3.427   6.291   1.075  0.1558  0.3773 -0.2149
    1R01  A14bb 5307   3.523   6.258   1.117  1.9066  1.0514  1.3128
    1R01  A14bc 5308   3.436   6.413   0.971 -0.1264 -0.4707 -0.5253
    1R01  A14bd 5309   3.474   6.496   1.033  0.1200 -1.3457 -1.8109
    1R01  A14be 5310   3.504   6.400   0.891  2.2454  2.2510  1.0171
    1R01  A14bf 5311   3.109   6.327   1.133 -0.5679 -0.3502 -0.4232
    1R01  A14c0 5312   2.975   6.293   1.106  0.2676  0.5801  0.4668
    1R01  A14c1 5313   2.919   6.344   1.031  2.2670  0.0554  0.1519
    1R01  A14c2 5314   0.198   4.560  -4.093 -0.7262  0.4380 -0.7452
    1R01  A14c3 5315   0.295   4.593  -4.052 -2.0455 -0.7100  0.3093
    1R01  A14c4 5316   0.130   4.630  -4.045 -0.4794  0.7758 -0.0899
    1R01  A14c5 5317   0.185   4.463  -4.052  1.0944 -0.3201 -1.0483
    1R01  A14c6 5318   0.191   4.563  -4.248 -0.9508 -0.0157  0.1775
    1R01  A14c7 5319   0.042   4.535  -4.291 -0.5806  0.0801  0.5372
    1R01  A14c8 5320   0.023   4.423  -4.286  2.0538 -1.7037  0.2573
    1R01  A14c9 5321  -0.015   4.597  -4.225 -1.3816 -0.1446 -0.7621
    1R01  A14ca 5322   0.031   4.550  -4.398  2.0515  0.1898  0.2979
    1R01  A14cb 5323   0.294   4.468  -4.296  0.3056  0.4227  0.2922
    1R01  A14cc 5324   0.372   4.537  -4.390  0.2123 -0.5909  0.0279
    1R01  A14cd 5325   0.482   4.475  -4.450 -0.2021 -0.4096 -0.3467
    1R01  A14ce 5326   0.547   4.523  -4.523 -0.3519  1.8275 -2.0539
    1R01  A14cf 5327   0.514   4.340  -4.405 -0.2975  0.3458  0.2538
    1R01  A14d0 5328   0.611   4.224  -4.427 -0.0340 -0.2996 -0.5515
    1R01  A14d1 5329   0.716   4.256  -4.399  0.7633  0.5124 -0.5682
    1R01  A14d2 5330   0.521   4.150  -4.315 -0.2757  0.0028  0.7494
    1R01  A14d3 5331   0.583   4.135  -4.224  2.5020 -1.0325  2.4935
    1R01  A14d4 5332   0.481   4.008  -4.381  0.5306 -0.1602 -0.1596
    1R01  A14d5 5333   0.390   3.958  -4.337  0.5851 -0.1227 -3.9108
    1R01  A14d6 5334   0.620   3.943  -4.383 -0.3208  0.1520  0.6444
    1R01  A14d7 5335   0.674   3.944  -4.288  1.0296  1.1610  0.7969
    1R01  A14d8 5336   0.689   4.009  -4.506  0.3991 -0.9008  0.3352
    1R01  A14d9 5337   0.795   4.035  -4.489  0.4897  0.9777  2.3658
    1R01  A14da 5338   0.604   4.133  -4.556 -0.0835 -0.3874  0.2908
    1R01  A14db 5339   0.617   4.176  -4.651  2.3357 -0.9411 -1.3011
    1R01  A14dc 5340   0.456   4.066  -4.524 -0.1693  0.2734 -0.1194
    1R01  A14dd 5341   0.432   3.973  -4.590  0.1626 -0.5859 -0.5488
    1R01  A14de 5342   0.377   4.136  -4.538 -1.2534  0.8381  0.7674
    1R01  A14df 5343   0.436   4.272  -4.311 -0.0440 -0.2332  0.4299
    1R01  A14e0 5344   0.318   4.331  -4.256 -0.3084  0.1992  0.6322
    1R01  A14e1 5345   0.262   4.274  -4.182  0.8895  0.0011 -0.9417
    1R01  A14e2 5346   0.339   4.677  -4.393 -0.0430 -0.3106  0.2981
    1R01  A14e3 5347   0.224   4.705  -4.309 -0.6879 -0.0911  0.3564
    1R01  A14e4 5348   0.182   4.841  -4.273 -0.4376 -0.0541  0.6824
    1R01  A14e5 5349   0.117   4.868  -4.202  0.5385 -0.4427  1.0355
    1R01  A14e6 5350   0.259   4.938  -4.338  0.3669 -0.0197 -0.3791
    1R01  A14e7 5351   0.276   5.090  -4.338 -0.0953 -0.1635  0.6597
    1R01  A14e8 5352   0.179   5.138  -4.370 -0.3698  1.6724 -1.9849
    1R01  A14e9 5353   0.391   5.071  -4.447  0.8541  0.6445 -0.3351
    1R01  A14ea 5354   0.360   5.092  -4.548 -0.7997 -0.4424  0.6213
    1R01  A14eb 5355   0.513   5.150  -4.391  0.5974  0.2363 -0.2713
    1R01  A14ec 5356   0.590   5.192  -4.462  1.6796  1.4346 -1.9121
    1R01  A14ed 5357   0.566   5.087  -4.257  0.1104 -0.1354 -0.1259
    1R01  A14ee 5358   0.666   5.121  -4.223 -0.3935 -4.2081  3.8266
    1R01  A14ef 5359   0.571   4.939  -4.228  0.6330  0.1240  0.0978
    1R01  A14f0 5360   0.467   4.953  -4.129  0.3992 -0.2789  0.3015
    1R01  A14f1 5361   0.454   4.874  -4.014  0.0156  0.2971  0.6496
    1R01  A14f2 5362   0.377   4.909  -3.891 -0.3206 -0.6227  0.4184
    1R01  A14f3 5363   0.460   4.924  -3.816  1.0180 -3.5977  2.0123
    1R01  A14f4 5364   0.312   4.837  -3.851 -0.0921  0.2430 -1.3081
    1R01  A14f5 5365   0.315   4.997  -3.903 -1.0846 -3.1545 -0.4546
    1R01  A14f6 5366   0.538   4.759  -4.033 -0.2096 -0.7304 -0.4125
    1R01  A14f7 5367   0.623   4.733  -4.139 -0.7563  0.6618  0.6674
    1R01  A14f8 5368   0.649   4.824  -4.240 -0.3802 -0.4953  0.0016
    1R01  A14f9 5369   0.765   4.806  -4.346 -0.0585 -0.1474 -0.0304
    1R01  A14fa 5370   0.731   4.762  -4.439  0.1249 -0.6311 -1.0288
    1R01  A14fb 5371   0.800   4.904  -4.375 -1.0269 -0.1468  0.6327
    1R01  A14fc 5372   0.846   4.740  -4.298  2.0198 -3.3227 -2.0670
    1R01  A14fd 5373   0.446   5.099  -4.151  0.0362 -0.4019  0.0092
    1R01  A14fe 5374   0.480   5.153  -4.064  1.0725  0.8426  3.0479
    1R01  A14ff 5375   0.333   5.181  -4.227  0.1652 -0.0604  0.6033
    1R01  A1500 5376   0.254   5.235  -4.174 -0.9853 -0.1780  1.1895
    1R01  A1501 5377   0.433   5.267  -4.320  0.6280 -0.3756  0.4942
    1R01  A1502 5378   0.486   5.328  -4.259 -0.9441 -2.4049 -2.3909
    1R01  A1503 5379   0.380   5.318  -4.401  1.9453 -1.6151 -2.7734
    1R01  A1504 5380   0.357   4.919  -4.424 -0.6983 -0.3623  0.1967
    1R01  A1505 5381   0.401   4.787  -4.462  0.2032  0.5183  0.1873
    1R01  A1506 5382   0.490   4.773  -4.528  0.4026  1.9625  2.0957
    1R01  A1507 5383   0.552   1.986   0.246  0.0501  0.1690 -0.6084
    1R01  A1508 5384   0.466   1.936   0.290  0.9060 -0.9734 -0.5221
    1R01  A1509 5385   0.525   2.082   0.199 -1.1639  1.6429 -2.1900
    1R01  A150a 5386   0.582   1.919   0.163  2.0557  0.5191  1.6821
    1R01  A150b 5387   0.659   2.009   0.357  0.1823  0.2925  0.3474
    1R01  A150c 5388   0.773   2.100   0.312  0.7185  0.0208  0.2974
    1R01  A150d 5389   0.832   2.065   0.224  0.1399  1.1083  0.3598
    1R01  A150e 5390   0.836   2.116   0.396 -1.6813  0.0766  0.7075
    1R01  A150f 5391   0.738   2.201   0.284 -0.2356  0.5282 -1.7675
    1R01  A1510 5392   0.712   1.878   0.398 -0.0226 -0.0790  0.5782
    1R01  A1511 5393   0.657   1.849   0.522  0.1278 -0.5664  0.6507
    1R01  A1512 5394   0.703   1.734   0.590  0.2472  0.5410  0.5973
    1R01  A1513 5395   0.662   1.710   0.689  0.1929 -1.2789 -0.6841
    1R01  A1514 5396   0.797   1.653   0.534  0.6021  0.8437  0.2450
    1R01  A1515 5397   0.914   1.571   0.587  0.3826  0.2136  0.3604
    1R01  A1516 5398   0.902   1.464   0.573 -0.1083  0.6282 -0.5937
    1R01  A1517 5399   1.001   1.650   0.479  0.1791  0.9411 -0.7083
    1R01  A1518 5400   1.046   1.580   0.405 -1.2152  0.6856 -1.2270
    1R01  A1519 5401   1.105   1.737   0.552 -0.4656  0.6406  0.4351
    1R01  A151a 5402   1.134   1.831   0.497  1.3773  0.4351 -2.6838
    1R01  A151b 5403   1.212   1.627   0.590  0.6496 -0.6723  0.0884
    1R01  A151c 5404   1.246   1.576   0.498 -1.7120  0.6913 -2.2039
    1R01  A151d 5405   1.131   1.531   0.692  0.4841  0.1840 -0.2199
    1R01  A151e 5406   1.113   1.422   0.675  1.2213  0.7141  0.1947
    1R01  A151f 5407   0.990   1.604   0.719  1.0736  0.4019 -0.3305
    1R01  A1520 5408   0.930   1.582   0.807  0.8454  0.5546 -2.6057
    1R01  A1521 5409   1.032   1.754   0.688 -0.1609  0.9411 -0.5245
    1R01  A1522 5410   1.098   1.795   0.771  1.8431  1.7165  0.7020
    1R01  A1523 5411   0.948   1.825   0.671  1.8031 -0.8307  0.9697
    1R01  A1524 5412   0.871   1.708   0.436  0.3824 -0.6225 -0.8079
    1R01  A1525 5413   0.836   1.819   0.357  0.2544 -0.3570 -0.5306
    1R01  A1526 5414   0.893   1.859   0.279 -0.0868 -0.9495 -1.0523
    1R01  A1527 5415   0.588   1.967   0.580  0.2471  0.1478  0.4110
    1R01  A1528 5416   0.589   2.073   0.479  0.1907  0.6991  0.3536
    1R01  A1529 5417   0.557   2.207   0.515 -0.0859  0.1855 -1.1044
    1R01  A152a 5418   0.588   2.284   0.452  1.9509  1.2006  2.8256
    1R01  A152b 5419   0.512   2.223   0.645  0.9891  0.0188 -0.1741
    1R01  A152c 5420   0.544   2.336   0.737  0.5488 -0.1552 -0.1589
    1R01  A152d 5421   0.638   2.383   0.719  0.8240 -1.0716  0.9514
    1R01  A152e 5422   0.556   2.230   0.855  0.0231  0.4890  0.3951
    1R01  A152f 5423   0.655   2.208   0.895 -1.4574 -1.4995  2.4208
    1R01  A1530 5424   0.466   2.289   0.970 -0.8393 -0.9240  0.4471
    1R01  A1531 5425   0.489   2.246   1.079 -3.9228  0.2944  1.9193
    1R01  A1532 5426   0.320   2.282   0.922 -0.0735 -0.2100 -0.1029
    1R01  A1533 5427   0.294   2.181   0.898  0.6467  0.3843  2.6961
    1R01  A1534 5428   0.199   2.364   0.975 -0.3397 -0.1587 -0.2902
    1R01  A1535 5429   0.192   2.447   0.862 -0.0286 -0.0047 -0.2778
    1R01  A1536 5430   0.163   2.586   0.874  0.4262 -0.6570 -0.4140
    1R01  A1537 5431   0.179   2.683   0.761  0.6309  0.1913  0.2096
    1R01  A1538 5432   0.106   2.761   0.784  1.5047 -0.5264  1.0301
    1R01  A1539 5433   0.144   2.644   0.663 -2.3025  1.5121 -2.1626
    1R01  A153a 5434   0.276   2.730   0.754 -1.4563  1.3022  0.3673
    1R01  A153b 5435   0.119   2.621   1.003  0.3897 -0.2703  0.3859
    1R01  A153c 5436   0.135   2.542   1.112  0.3207 -1.0820 -0.0384
    1R01  A153d 5437   0.171   2.407   1.107 -0.0659 -0.4954 -0.2820
    1R01  A153e 5438   0.209   2.326   1.228  0.8090  0.8889  0.0719
    1R01  A153f 5439   0.317   2.320   1.239 -2.1324  0.1072 -2.5310
    1R01  A1540 5440   0.186   2.379   1.321 -0.2247  2.8370 -2.2898
    1R01  A1541 5441   0.159   2.229   1.229  2.5041  0.3564 -1.7212
    1R01  A1542 5442   0.305   2.374   0.796 -0.7285  0.6173  0.8347
    1R01  A1543 5443   0.283   2.318   0.702 -0.9902  0.0638  1.4134
    1R01  A1544 5444   0.444   2.447   0.780 -0.1538  0.2086 -0.0606
    1R01  A1545 5445   0.453   2.534   0.713 -1.2602 -0.2627 -2.1602
    1R01  A1546 5446   0.493   2.438   0.932 -0.6476 -0.3729 -0.1277
    1R01  A1547 5447   0.424   2.495   0.999 -1.4918  1.7149  0.4210
    1R01  A1548 5448   0.599   2.476   0.949 -0.0244 -1.0984 -0.0524
    1R01  A1549 5449   0.517   2.127   0.747  0.0922 -0.2830  1.2386
    1R01  A154a 5450   0.560   1.992   0.718  0.3712  0.2894 -0.4438
    1R01  A154b 5451   0.586   1.923   0.795  2.6670  0.5029  2.8168
    1R01  A154c 5452   0.808   4.130   3.069 -0.0914  0.4768 -0.0162
    1R01  A154d 5453   0.774   4.172   3.169 -1.1462 -0.7538  1.2543
    1R01  A154e 5454   0.917   4.158   3.051 -0.6244  1.9686  2.4728
    1R01  A154f 5455   0.784   4.017   3.085  0.6243  0.2352  2.1204
    1R01  A1550 5456   0.716   4.195   2.958 -0.5818  0.4121  0.4375
    1R01  A1551 5457   0.566   4.195   3.002  0.0091  0.7440  0.2322
    1R01  A1552 5458   0.562   4.211   3.112 -2.0134  0.8816  1.1510
    1R01  A1553 5459   0.510   4.104   2.983  0.5689  0.9321 -3.8994
    1R01  A1554 5460   0.508   4.274   2.960  2.0742 -0.5153 -1.6704
    1R01  A1555 5461   0.711   4.124   2.819  0.1606  0.4642 -0.1477
    1R01  A1556 5462   0.751   4.221   2.730  0.9837 -0.7868  0.4284
    1R01  A1557 5463   0.783   4.188   2.600 -0.5586 -0.1695 -0.2057
    1R01  A1558 5464   0.845   4.249   2.542  1.7989 -0.8909  2.5058
    1R01  A1559 5465   0.769   4.059   2.570  0.1671 -0.1315 -0.0813
    1R01  A155a 5466   0.814   3.963   2.461 -1.0289 -0.0491  0.3009
    1R01  A155b 5467   0.920   3.964   2.444 -0.2833  2.2174 -1.8693
    1R01  A155c 5468   0.750   3.847   2.551  0.5947 -0.2249 -0.7709
    1R01  A155d 5469   0.823   3.774   2.594  0.2851 -1.5991 -0.7925
    1R01  A155e 5470   0.657   3.776   2.453  0.5092 -0.5738  0.2534
    1R01  A155f 5471   0.578   3.714   2.500  0.6242  1.9183  3.0008
    1R01  A1560 5472   0.761   3.713   2.354  0.4083  0.1304  0.2200
    1R01  A1561 5473   0.839   3.662   2.413  1.3873  0.0907  1.2802
    1R01  A1562 5474   0.819   3.827   2.268  0.3439  0.6190 -0.0794
    1R01  A1563 5475   0.930   3.829   2.255  0.7174 -0.2943 -2.2362
    1R01  A1564 5476   0.749   3.956   2.318 -0.2698 -0.7754 -0.1582
    1R01  A1565 5477   0.749   4.045   2.248  1.3417  1.1041 -0.3973
    1R01  A1566 5478   0.604   3.891   2.359 -0.6257 -0.4555 -0.2593
    1R01  A1567 5479   0.545   3.872   2.272  0.7048 -2.7230  0.8052
    1R01  A1568 5480   0.539   3.966   2.417 -1.3481 -0.4716 -0.5224
    1R01  A1569 5481   0.710   3.961   2.646  0.1683  1.1717 -0.1064
    1R01  A156a 5482   0.699   3.985   2.781  0.2862  0.4740 -0.1808
    1R01  A156b 5483   0.667   3.915   2.850 -0.4023  0.0302 -1.4720
    1R01  A156c 5484   0.785   4.341   2.794  0.1597 -0.1719 -0.1459
    1R01  A156d 5485   0.778   4.333   2.932 -0.0048  0.9973  0.4300
    1R01  A156e 5486   0.820   4.432   3.024 -0.4823  0.2110  0.4556
    1R01  A156f 5487   0.811   4.439   3.132  0.2377  1.5023  2.4863
    1R01  A1570 5488   0.889   4.539   2.962 -0.4602  0.2028  0.3625
    1R01  A1571 5489   0.938   4.684   2.986  0.9162 -0.1378  0.2121
    1R01  A1572 5490   0.867   4.750   3.037  0.8080  0.1643  0.7245
    1R01  A1573 5491   0.925   4.707   2.834 -0.3573  0.1510  0.1804
    1R01  A1574 5492   0.849   4.782   2.816  2.2647  0.6663  0.3801
    1R01  A1575 5493   1.066   4.775   2.795 -0.1464  0.1804 -0.2290
    1R01  A1576 5494   1.063   4.824   2.700  3.7494  0.9676  0.6746
    1R01  A1577 5495   1.171   4.668   2.814 -0.2325  0.3965  0.4438
    1R01  A1578 5496   1.259   4.708   2.779 -0.5659 -0.2458 -0.1387
    1R01  A1579 5497   1.166   4.515   2.797  0.3788 -0.2087 -0.3604
    1R01  A157a 5498   1.180   4.494   2.932 -0.0424  0.0636 -0.3339
    1R01  A157b 5499   1.187   4.371   2.993 -0.1700 -0.0970  0.0030
    1R01  A157c 5500   1.207   4.339   3.141  0.9948 -0.0988 -0.3884
    1R01  A157d 5501   1.193   4.234   3.156 -2.4920  1.0857  0.0568
    1R01  A157e 5502   1.140   4.402   3.206 -1.1893  0.5480  3.0326
    1R01  A157f 5503   1.310   4.367   3.161  2.6645 -1.3627 -2.6656
    1R01  A1580 5504   1.199   4.273   2.894  0.1479 -0.3619  0.4372
    1R01  A1581 5505   1.189   4.295   2.757 -0.6608 -0.0683  0.4412
    1R01  A1582 5506   1.164   4.418   2.698 -0.3778  0.1064  0.2271
    1R01  A1583 5507   1.175   4.444   2.547  0.5001 -0.3390 -0.5175
    1R01  A1584 5508   1.257   4.387   2.503 -0.8573 -0.1940 -0.4054
    1R01  A1585 5509   1.192   4.549   2.518 -1.3028 -1.2261  0.6633
    1R01  A1586 5510   1.090   4.413   2.483 -1.7073 -0.3199 -0.8534
    1R01  A1587 5511   1.187   4.644   2.966  0.7110 -0.3777  0.5289
    1R01  A1588 5512   1.295   4.655   3.004  0.3151 -1.2985 -0.5583
    1R01  A1589 5513   1.087   4.736   3.033  0.3149  0.3281 -0.5721
    1R01  A158a 5514   1.103   4.765   3.139  2.0925  1.0745 -0.8340
    1R01  A158b 5515   1.098   4.860   2.928  0.0526 -0.2642  0.0353
    1R01  A158c 5516   1.190   4.907   2.923 -1.3526 -0.0607 -0.2565
    1R01  A158d 5517   1.032   4.939   2.949  0.6527 -2.6730  0.9326
    1R01  A158e 5518   0.880   4.559   2.826 -0.5428  0.2002  0.2178
    1R01  A158f 5519   0.831   4.462   2.729  0.3229 -0.0046  0.2986
    1R01  A1590 5520   0.849   4.479   2.624 -0.2188  1.2812  1.5559
    1R01  A1591 5521   0.711   2.631  -4.022  0.1096 -0.6106 -0.0522
    1R01  A1592 5522   0.687   2.560  -4.103 -1.0906 -1.8765  0.1708
    1R01  A1593 5523   0.662   2.610  -3.926 -1.2073 -0.6020  0.3994
    1R01  A1594 5524   0.817   2.602  -4.010  2.7939 -0.0138 -1.5563
    1R01  A1595 5525   0.695   2.776  -4.063 -1.1547  0.6498  0.5253
    1R01  A1596 5526   0.782   2.856  -3.967 -0.3982 -0.0254 -0.5778
    1R01  A1597 5527   0.889   2.831  -3.990 -0.8574 -0.4972  0.6089
    1R01  A1598 5528   0.760   2.830  -3.869 -1.1186 -2.7691 -0.8341
    1R01  A1599 5529   0.777   2.958  -3.991  0.1142 -0.3101 -0.7056
    1R01  A159a 5530   0.549   2.824  -4.073 -0.2255 -0.6405 -0.6970
    1R01  A159b 5531   0.532   2.886  -4.200 -0.3610  0.0014 -0.1826
    1R01  A159c 5532   0.412   2.943  -4.230 -0.0711 -0.1147  0.1572
    1R01  A159d 5533   0.402   2.972  -4.332  0.1536  0.2999  0.5486
    1R01  A159e 5534   0.301   2.931  -4.137 -0.2620 -0.0321 -0.7800
    1R01  A159f 5535   0.149   2.933  -4.136 -0.2058 -0.3962  0.4487
    1R01  A15a0 5536   0.107   2.878  -4.224  0.0803 -0.4091 -0.7092
    1R01  A15a1 5537   0.173   2.869  -3.993  0.0417  0.0449 -0.1712
    1R01  A15a2 5538   0.131   2.766  -3.984 -0.9396 -0.1755 -1.9542
    1R01  A15a3 5539   0.119   2.975  -3.888 -0.0932  0.1340  0.0092
    1R01  A15a4 5540   0.160   2.972  -3.788 -0.1175 -0.7190 -0.1454
    1R01  A15a5 5541  -0.031   2.943  -3.917  0.2750  0.2787  0.0413
    1R01  A15a6 5542  -0.054   2.837  -3.900  1.7807  0.6363 -0.1338
    1R01  A15a7 5543  -0.070   3.005  -4.055 -0.4533  0.0787  0.3940
    1R01  A15a8 5544  -0.121   2.940  -4.128 -1.0436  3.2906 -1.6679
    1R01  A15a9 5545   0.067   3.068  -4.112 -0.3854  0.7732 -0.3335
    1R01  A15aa 5546   0.071   3.151  -4.187 -1.8302  1.0518 -1.2461
    1R01  A15ab 5547   0.124   3.102  -3.973  0.1974  0.6806 -0.3870
    1R01  A15ac 5548   0.226   3.140  -3.966 -0.9158  0.0932 -2.2722
    1R01  A15ad 5549   0.069   3.176  -3.921  2.2034 -1.4477  2.0205
    1R01  A15ae 5550   0.314   2.861  -4.024 -0.2460  0.0331  0.6338
    1R01  A15af 5551   0.440   2.818  -3.977 -0.5579  0.3482 -0.0202
    1R01  A15b0 5552   0.451   2.766  -3.884  1.9420  0.9709  0.5314
    1R01  A15b1 5553   0.654   2.874  -4.278 -0.4104  0.0607 -0.7994
    1R01  A15b2 5554   0.758   2.812  -4.205 -0.3407 -0.2373 -0.2379
    1R01  A15b3 5555   0.895   2.804  -4.245  0.0708  0.1064 -0.8127
    1R01  A15b4 5556   0.973   2.789  -4.186  0.6453 -4.5065 -3.1784
    1R01  A15b5 5557   0.920   2.849  -4.374  0.3149 -0.1362 -0.4507
    1R01  A15b6 5558   1.031   2.931  -4.437 -0.1152 -0.1389 -0.5698
    1R01  A15b7 5559   1.068   3.009  -4.372  0.6013 -2.4452  0.1320
    1R01  A15b8 5560   0.918   2.988  -4.527 -0.3226 -0.7894 -0.4592
    1R01  A15b9 5561   0.898   3.094  -4.512 -1.0436 -1.1179 -0.7509
    1R01  A15ba 5562   0.968   2.961  -4.670  0.2139 -0.5130  0.0131
    1R01  A15bb 5563   0.914   3.021  -4.741  0.9487  0.8201 -2.4245
    1R01  A15bc 5564   0.973   2.807  -4.690 -0.2711 -0.6908 -0.8916
    1R01  A15bd 5565   0.984   2.788  -4.795  0.6813 -0.9510 -2.5594
    1R01  A15be 5566   0.905   2.691  -4.616 -0.6240 -0.1285 -0.6185
    1R01  A15bf 5567   1.026   2.658  -4.541 -0.5957  0.3491  0.2676
    1R01  A15c0 5568   1.061   2.524  -4.507 -0.1887 -1.0561  0.7630
    1R01  A15c1 5569   1.206   2.476  -4.487 -0.0902 -0.2300  0.2137
    1R01  A15c2 5570   1.257   2.519  -4.402 -2.8521 -1.6689  1.8131
    1R01  A15c3 5571   1.256   2.516  -4.573 -0.0936 -2.7703  1.8752
    1R01  A15c4 5572   1.209   2.367  -4.488  2.0668  2.4411  0.1885
    1R01  A15c5 5573   0.952   2.434  -4.530 -0.0017 -0.2533 -1.2162
    1R01  A15c6 5574   0.839   2.470  -4.600  0.5926 -0.6778 -0.1015
    1R01  A15c7 5575   0.809   2.599  -4.655  0.3574 -0.0165 -0.0779
    1R01  A15c8 5576   0.711   2.622  -4.770 -0.2113 -0.1565 -0.4010
    1R01  A15c9 5577   0.619   2.670  -4.735  0.3053  0.1451  0.0026
    1R01  A15ca 5578   0.678   2.531  -4.814  0.9748  1.1671  3.2573
    1R01  A15cb 5579   0.741   2.682  -4.848 -1.7702 -0.6607  0.8431
    1R01  A15cc 5580   1.106   2.766  -4.601 -0.1758 -0.1405  0.4132
    1R01  A15cd 5581   1.192   2.725  -4.664  0.2067 -2.5405  1.0665
    1R01  A15ce 5582   1.147   2.890  -4.527  0.3571  0.0003  0.4227
    1R01  A15cf 5583   1.256   2.892  -4.490 -0.9559  4.5780 -2.0058
    1R01  A15d0 5584   1.120   2.992  -4.641 -0.4782 -0.5930 -0.8536
    1R01  A15d1 5585   1.181   2.973  -4.725 -1.5752 -0.7680 -0.1000
    1R01  A15d2 5586   1.131   3.096  -4.608 -0.1611 -0.8102  1.0017
    1R01  A15d3 5587   0.818   2.903  -4.449  0.1169 -0.4549 -0.0826
    1R01  A15d4 5588   0.692   2.929  -4.404  0.6280  0.0267 -0.0775
    1R01  A15d5 5589   0.631   3.001  -4.454 -1.7745  0.8841  1.2753
    1R01  A15d6 5590   3.976   4.237   0.098  0.5452 -0.2084  1.0874
    1R01  A15d7 5591   3.998   4.151   0.161 -0.5565 -3.1488 -4.0116
    1R01  A15d8 5592   3.906   4.291   0.154 -0.4206  2.6060 -0.2573
    1R01  A15d9 5593   4.078   4.286   0.085  2.2646 -1.3534 -0.2316
    1R01  A15da 5594   3.916   4.167  -0.027 -0.6755 -0.7246  0.2068
    1R01  A15db 5595   3.859   4.275  -0.118  0.2218 -0.4644 -0.5502
    1R01  A15dc 5596   3.780   4.328  -0.062 -1.9280 -0.8613  0.2519
    1R01  A15dd 5597   3.809   4.225  -0.206  0.4989 -0.4657 -2.9260
    1R01  A15de 5598   3.934   4.340  -0.159  0.4961  2.8547  0.5726
    1R01  A15df 5599   3.815   4.064   0.007 -0.4250 -0.4801  0.6708
    1R01  A15e0 5600   3.857   3.945  -0.046 -0.0140  0.5534 -0.8275
    1R01  A15e1 5601   3.789   3.822  -0.013 -0.7512 -0.2051 -0.4272
    1R01  A15e2 5602   3.831   3.729  -0.042  0.9883  1.3054 -0.4030
    1R01  A15e3 5603   3.671   3.838   0.053 -0.1660 -0.1696 -0.4985
    1R01  A15e4 5604   3.575   3.752   0.124  0.2002 -0.2613  0.5924
    1R01  A15e5 5605   3.630   3.683   0.189 -1.7390 -2.7669  2.0685
    1R01  A15e6 5606   3.524   3.888   0.192  0.2393 -0.2798 -0.1593
    1R01  A15e7 5607   3.552   3.899   0.295 -1.3419  1.1788  1.1311
    1R01  A15e8 5608   3.366   3.885   0.172  0.3893  0.0319  0.7932
    1R01  A15e9 5609   3.293   3.969   0.172 -0.3405  1.1470 -2.0738
    1R01  A15ea 5610   3.340   3.760   0.266  0.5263  0.5898 -0.0205
    1R01  A15eb 5611   3.374   3.763   0.368 -0.5071 -2.1451  1.4726
    1R01  A15ec 5612   3.388   3.625   0.181 -0.0071 -0.0551  0.1848
    1R01  A15ed 5613   3.455   3.554   0.238  2.1237 -0.0462  2.2399
    1R01  A15ee 5614   3.459   3.681   0.056 -0.3554  0.2777  0.1770
    1R01  A15ef 5615   3.483   3.606  -0.024 -0.3912  0.7814 -2.8941
    1R01  A15f0 5616   3.366   3.810   0.033  0.5562 -0.4917  0.2235
    1R01  A15f1 5617   3.262   3.795   0.002  1.2903  1.8340 -0.3844
    1R01  A15f2 5618   3.416   3.874  -0.039  0.9472  3.2414  0.6707
    1R01  A15f3 5619   3.626   3.957   0.098  0.8214 -0.8930 -0.0468
    1R01  A15f4 5620   3.699   4.078   0.080 -0.0076 -0.2335 -0.4959
    1R01  A15f5 5621   3.680   4.169   0.136 -0.4898 -1.5256  2.3750
    1R01  A15f6 5622   3.994   3.952  -0.092  0.4969 -0.6483  0.1114
    1R01  A15f7 5623   4.039   4.086  -0.088  0.0911 -0.0423 -0.2079
    1R01  A15f8 5624   4.176   4.113  -0.098  0.2114  0.2766  0.1804
    1R01  A15f9 5625   4.226   4.208  -0.092  0.1854 -0.9429 -1.0956
    1R01  A15fa 5626   4.260   4.001  -0.137 -0.1539 -0.6938 -1.0310
    1R01  A15fb 5627   4.401   3.962  -0.184 -0.0545 -0.5085 -0.2520
    1R01  A15fc 5628   4.434   4.018  -0.273  2.5493  0.1485  0.6389
    1R01  A15fd 5629   4.339   3.825  -0.222 -0.0825  0.4973  0.2862
    1R01  A15fe 5630   4.329   3.813  -0.329 -0.1428 -0.0131 -2.2800
    1R01  A15ff 5631   4.424   3.707  -0.154  0.3834  0.0813 -0.4729
    1R01  A1600 5632   4.425   3.606  -0.191 -1.2864  1.0423 -0.0792
    1R01  A1601 5633   4.398   3.724   0.007  0.8039 -0.0334 -0.6401
    1R01  A1602 5634   4.463   3.652   0.061 -0.3596  1.2600 -0.9939
    1R01  A1603 5635   4.285   3.776   0.087  0.1130 -0.6880  0.1184
    1R01  A1604 5636   4.347   3.894   0.121 -0.1470  0.2769  0.1888
    1R01  A1605 5637   4.305   3.969   0.226 -0.1900 -0.3766 -0.0210
    1R01  A1606 5638   4.388   4.089   0.280 -0.5436  0.4922 -0.6465
    1R01  A1607 5639   4.446   4.072   0.376 -1.3343 -2.7593  0.9884
    1R01  A1608 5640   4.463   4.123   0.203 -1.5424  1.2024 -1.5641
    1R01  A1609 5641   4.326   4.178   0.295 -0.1499  3.3140 -0.4084
    1R01  A160a 5642   4.186   3.929   0.288 -0.3258 -0.9707 -0.0396
    1R01  A160b 5643   4.120   3.813   0.251  0.4343 -0.7125  0.0030
    1R01  A160c 5644   4.172   3.722   0.161  0.0745 -0.2963 -0.2771
    1R01  A160d 5645   4.121   3.582   0.141 -0.4348 -0.4521  0.1723
    1R01  A160e 5646   4.088   3.566   0.035 -0.4967  1.1325 -0.8354
    1R01  A160f 5647   4.043   3.552   0.210  0.8211  1.8286 -1.5207
    1R01  A1610 5648   4.209   3.517   0.158  1.0091 -0.7753  0.1304
    1R01  A1611 5649   4.472   3.864   0.039  0.5450  0.0525 -0.5096
    1R01  A1612 5650   4.563   3.841   0.104  2.7818  2.7215 -1.5440
    1R01  A1613 5651   4.521   3.926  -0.089  0.3164  0.2511 -0.6257
    1R01  A1614 5652   4.603   3.998  -0.075  0.5292  0.8814 -1.1605
    1R01  A1615 5653   4.563   3.786  -0.158  0.4382  0.8245  0.6567
    1R01  A1616 5654   4.634   3.719  -0.109  0.2059  2.7285 -2.6528
    1R01  A1617 5655   4.594   3.796  -0.265  2.7008 -2.2090  1.1600
    1R01  A1618 5656   4.205   3.887  -0.170 -0.1494  0.1591 -0.3272
    1R01  A1619 5657   4.073   3.846  -0.147 -0.6799  0.2890 -0.0632
    1R01  A161a 5658   4.044   3.744  -0.165  2.7395 -1.3002 -2.1444
    1R01  A161b 5659   2.340   1.326  -0.761 -0.3466 -0.0318  0.8166
    1R01  A161c 5660   2.266   1.332  -0.681 -1.2107 -1.5634 -1.5544
    1R01  A161d 5661   2.426   1.270  -0.728 -1.6757 -1.3782  1.8663
    1R01  A161e 5662   2.376   1.427  -0.780  1.6312  3.1801  0.3810
    1R01  A161f 5663   2.269   1.264  -0.890 -0.4309  0.3798  0.1689
    1R01  A1620 5664   2.350   1.282  -1.021  0.8558 -0.1430 -0.1506
    1R01  A1621 5665   2.284   1.266  -1.108 -0.2973 -1.7513 -1.5784
    1R01  A1622 5666   2.394   1.379  -1.031  0.6255 -0.1115 -0.8297
    1R01  A1623 5667   2.433   1.212  -1.012  0.5699  0.0067 -0.7748
    1R01  A1624 5668   2.131   1.335  -0.893 -0.4905 -0.5808  0.4647
    1R01  A1625 5669   2.029   1.234  -0.886 -0.3840  0.0673  0.0838
    1R01  A1626 5670   1.892   1.264  -0.898 -0.2770 -0.1636 -0.6538
    1R01  A1627 5671   1.816   1.186  -0.887  0.1638  0.0883  1.0795
    1R01  A1628 5672   1.862   1.402  -0.911 -0.6539 -0.0811  0.2847
    1R01  A1629 5673   1.759   1.477  -0.974 -0.6986 -0.7530  0.1011
    1R01  A162a 5674   1.696   1.499  -0.891  0.0879 -0.0185 -1.9759
    1R01  A162b 5675   1.874   1.584  -1.009  0.5084  0.4403 -0.2680
    1R01  A162c 5676   1.860   1.682  -0.955 -0.9682  0.3894  1.1074
    1R01  A162d 5677   1.876   1.592  -1.170 -0.0487 -1.0150  0.1821
    1R01  A162e 5678   1.968   1.635  -1.219  1.1441 -1.5120  1.3213
    1R01  A162f 5679   1.747   1.663  -1.196  0.8162  0.0339 -0.0350
    1R01  A1630 5680   1.740   1.764  -1.157  0.6591  0.3763  0.5448
    1R01  A1631 5681   1.630   1.564  -1.155 -0.5277  0.2780 -0.9860
    1R01  A1632 5682   1.559   1.602  -1.082 -0.4485 -0.1731  1.2603
    1R01  A1633 5683   1.701   1.436  -1.111  0.2094 -0.1155 -0.2290
    1R01  A1634 5684   1.638   1.342  -1.121  0.1542 -0.2107 -1.8332
    1R01  A1635 5685   1.831   1.440  -1.199  0.1001 -0.3528  0.6210
    1R01  A1636 5686   1.904   1.371  -1.166  1.7575  0.1871  1.1236
    1R01  A1637 5687   1.811   1.415  -1.304  3.1232  1.8742  0.7297
    1R01  A1638 5688   1.965   1.491  -0.934  0.3257 -0.2054 -0.0753
    1R01  A1639 5689   2.100   1.462  -0.936 -0.5513  0.1045  0.6090
    1R01  A163a 5690   2.176   1.538  -0.975 -0.0108 -0.0832  0.4568
    1R01  A163b 5691   2.090   1.104  -0.871  0.2899 -0.5194  0.3003
    1R01  A163c 5692   2.228   1.112  -0.864  0.3068 -0.0877 -0.2149
    1R01  A163d 5693   2.312   0.997  -0.855 -0.7381  0.5111  0.1761
    1R01  A163e 5694   2.419   0.990  -0.847 -3.3299 -3.1578 -0.2832
    1R01  A163f 5695   2.238   0.876  -0.862 -0.1853  0.2133  0.3151
    1R01  A1640 5696   2.265   0.729  -0.849  0.1660  0.4536 -0.4195
    1R01  A1641 5697   2.311   0.700  -0.940 -0.2780 -0.3897 -0.8862
    1R01  A1642 5698   2.109   0.710  -0.840  0.5139 -0.3823 -0.8222
    1R01  A1643 5699   2.070   0.668  -0.933 -1.6346  1.9995  0.9856
    1R01  A1644 5700   2.083   0.613  -0.712  0.3618  0.1480  0.7154
    1R01  A1645 5701   1.986   0.566  -0.710  0.5832 -2.5457  1.5678
    1R01  A1646 5702   2.124   0.696  -0.587  0.5555  0.0852  0.9278
    1R01  A1647 5703   2.099   0.645  -0.496 -2.1662  2.2106  0.5160
    1R01  A1648 5704   2.111   0.845  -0.564 -0.1075  0.2365  0.2055
    1R01  A1649 5705   2.251   0.867  -0.576  0.6007  0.0421  0.4514
    1R01  A164a 5706   2.321   0.972  -0.513 -0.1997 -0.1792 -0.1769
    1R01  A164b 5707   2.466   0.988  -0.486 -0.1744  0.2670  0.6761
    1R01  A164c 5708   2.508   1.081  -0.524  1.1897 -0.2728  0.9810
    1R01  A164d 5709   2.482   0.978  -0.380 -1.1828  1.8182  0.2622
    1R01  A164e 5710   2.516   0.907  -0.547  4.3243 -1.9820  0.3389
    1R01  A164f 5711   2.229   1.075  -0.487 -0.3793 -0.2376  0.7831
    1R01  A1650 5712   2.092   1.064  -0.482 -0.2284  0.7915  0.0830
    1R01  A1651 5713   2.024   0.940  -0.511 -0.3119  0.1276 -0.0491
    1R01  A1652 5714   1.877   0.924  -0.494  0.4173  0.6838 -0.6172
    1R01  A1653 5715   1.840   0.938  -0.392 -0.0296 -2.7049 -0.1053
    1R01  A1654 5716   1.819   0.985  -0.562  1.9891 -0.4992  1.1871
    1R01  A1655 5717   1.853   0.824  -0.530  1.8737 -1.0198 -0.0944
    1R01  A1656 5718   2.277   0.720  -0.604 -0.4536  0.5628 -0.5936
    1R01  A1657 5719   2.327   0.684  -0.520  1.3406  1.2898 -0.4572
    1R01  A1658 5720   2.325   0.644  -0.732  0.3955 -0.2681 -0.2603
    1R01  A1659 5721   2.431   0.615  -0.737  1.2467 -0.5788 -0.5702
    1R01  A165a 5722   2.207   0.528  -0.729 -0.4793  0.1536  0.6755
    1R01  A165b 5723   2.193   0.459  -0.816  1.9538  0.6874  0.5729
    1R01  A165c 5724   2.215   0.462  -0.639 -1.6993  0.3730  1.7460
    1R01  A165d 5725   2.105   0.863  -0.849 -0.3829  0.3026  0.4149
    1R01  A165e 5726   2.020   0.975  -0.859  0.2119  0.2869  0.6700
    1R01  A165f 5727   1.912   0.968  -0.855 -1.7085  0.2106 -0.7156
    1R01  A1660 5728   3.417   1.739   1.542  1.0682  0.2293  0.6066
    1R01  A1661 5729   3.327   1.794   1.579 -1.8632  1.0533  1.5667
    1R01  A1662 5730   3.412   1.639   1.584 -2.8104 -0.6478  1.2657
    1R01  A1663 5731   3.400   1.748   1.433 -3.4753  2.4270  0.7711
    1R01  A1664 5732   3.547   1.817   1.583  0.0892 -0.0910  0.4138
    1R01  A1665 5733   3.556   1.951   1.502 -0.6328  0.0605  0.2346
    1R01  A1666 5734   3.640   2.013   1.520 -1.3483 -1.6265 -1.0776
    1R01  A1667 5735   3.469   2.006   1.523 -2.1314 -1.4716 -1.5743
    1R01  A1668 5736   3.553   1.931   1.394 -1.6493  1.8510  0.1478
    1R01  A1669 5737   3.671   1.750   1.549  0.4067  0.8903  0.0993
    1R01  A166a 5738   3.763   1.779   1.661  0.4207  0.1868 -0.1701
    1R01  A166b 5739   3.898   1.729   1.660 -0.1731 -0.1007  0.2686
    1R01  A166c 5740   3.956   1.762   1.739 -0.4942  0.7414 -0.7492
    1R01  A166d 5741   3.931   1.652   1.546  0.5582  1.0908 -0.5773
    1R01  A166e 5742   4.047   1.566   1.484 -0.4460  0.2321 -0.7619
    1R01  A166f 5743   4.076   1.489   1.553 -1.2029  0.8671 -1.3927
    1R01  A1670 5744   3.933   1.521   1.387  0.2509 -0.2064  0.3128
    1R01  A1671 5745   3.904   1.417   1.403 -3.2008  1.7743  2.4944
    1R01  A1672 5746   3.987   1.548   1.245 -0.0087 -0.9106  0.0715
    1R01  A1673 5747   3.904   1.546   1.176 -0.4278 -2.0411  1.5173
    1R01  A1674 5748   4.106   1.445   1.229 -0.2057 -0.8160  0.0384
    1R01  A1675 5749   4.126   1.447   1.127 -0.3273  2.4783 -1.2510
    1R01  A1676 5750   4.224   1.500   1.317 -0.7654 -0.4506  0.3735
    1R01  A1677 5751   4.310   1.533   1.256  0.2864 -0.0547  0.1496
    1R01  A1678 5752   4.169   1.623   1.393  0.2642 -0.3729 -0.0184
    1R01  A1679 5753   4.244   1.700   1.434  0.7670  2.9710 -1.3094
    1R01  A167a 5754   4.082   1.683   1.271  0.0652 -0.4123  0.3866
    1R01  A167b 5755   4.038   1.777   1.293 -2.5303 -1.1697 -2.1364
    1R01  A167c 5756   4.140   1.706   1.182  0.4624 -0.3402  0.5231
    1R01  A167d 5757   3.838   1.611   1.455  0.6770 -0.0630  0.0045
    1R01  A167e 5758   3.711   1.664   1.437 -0.2265  0.1700 -0.0122
    1R01  A167f 5759   3.647   1.643   1.349  0.0033 -2.1613  2.5164
    1R01  A1680 5760   3.685   1.836   1.773  0.3288  0.5929  0.2005
    1R01  A1681 5761   3.548   1.831   1.735 -0.2033  0.2292 -0.4124
    1R01  A1682 5762   3.440   1.831   1.825 -0.0096  0.4104 -0.1113
    1R01  A1683 5763   3.332   1.817   1.796 -1.4425 -0.3449 -0.5984
    1R01  A1684 5764   3.466   1.843   1.958 -0.7252 -0.2121 -0.3972
    1R01  A1685 5765   3.410   1.822   2.092  0.2147 -0.0024 -0.8206
    1R01  A1686 5766   3.353   1.904   2.134 -0.9062  0.8780 -1.2353
    1R01  A1687 5767   3.567   1.816   2.138 -0.4590  0.1078 -0.4959
    1R01  A1688 5768   3.581   1.908   2.196  0.5083  0.1721 -1.0565
    1R01  A1689 5769   3.581   1.688   2.229 -0.6972 -0.7182  0.0059
    1R01  A168a 5770   3.667   1.688   2.296 -1.1406  3.5702  0.0587
    1R01  A168b 5771   3.565   1.568   2.136 -0.3028 -0.3849 -0.2171
    1R01  A168c 5772   3.597   1.486   2.187 -2.5465  0.1064 -0.5091
    1R01  A168d 5773   3.596   1.554   1.987 -0.3747  0.7080  0.3104
    1R01  A168e 5774   3.461   1.542   1.956  0.7465 -0.3428  0.5188
    1R01  A168f 5775   3.421   1.489   1.832 -0.4078 -0.3886  0.0948
    1R01  A1690 5776   3.273   1.462   1.802 -0.2585 -0.4622 -0.3075
    1R01  A1691 5777   3.225   1.411   1.884  0.6770  1.7709 -1.8040
    1R01  A1692 5778   3.260   1.384   1.722  0.7806  0.7854 -0.3540
    1R01  A1693 5779   3.219   1.553   1.770 -3.3281  0.3316 -0.0598
    1R01  A1694 5780   3.523   1.453   1.743  0.1743  0.2913 -0.3807
    1R01  A1695 5781   3.652   1.440   1.790 -0.3803  0.3159 -0.0111
    1R01  A1696 5782   3.697   1.487   1.912  0.2708 -0.2817 -0.2414
    1R01  A1697 5783   3.838   1.454   1.972  0.6208 -1.1170  0.0478
    1R01  A1698 5784   3.906   1.512   1.917 -2.1532 -0.2230  1.6808
    1R01  A1699 5785   3.874   1.353   1.976 -2.6992  1.2072  2.9309
    1R01  A169a 5786   3.848   1.485   2.078 -1.0237 -1.8468 -0.5117
    1R01  A169b 5787   3.414   1.573   2.092  0.0547 -0.0751 -0.5012
    1R01  A169c 5788   3.368   1.487   2.131 -2.0419  0.6084  3.8149
    1R01  A169d 5789   3.339   1.698   2.150 -0.3656  0.2736  0.2045
    1R01  A169e 5790   3.236   1.704   2.169  1.8762  1.2968  0.5174
    1R01  A169f 5791   3.427   1.692   2.283  0.0404 -0.8031  0.5881
    1R01  A16a0 5792   3.404   1.601   2.342  0.4604 -1.4312 -2.0012
    1R01  A16a1 5793   3.417   1.781   2.342  0.3051 -1.3132 -0.4689
    1R01  A16a2 5794   3.593   1.837   1.997  0.3373 -0.2083 -0.9015
    1R01  A16a3 5795   3.708   1.832   1.910  0.3652  0.1406 -0.1489
    1R01  A16a4 5796   3.802   1.801   1.956  1.3578  3.0933 -0.2317
    1R01  A16a5 5797   2.159   3.390   1.758  0.1735  0.2301  0.3016
    1R01  A16a6 5798   2.071   3.439   1.716 -1.1084 -0.2563  1.9092
    1R01  A16a7 5799   2.130   3.283   1.765  2.5264 -1.6773 -0.6786
    1R01  A16a8 5800   2.238   3.407   1.687 -3.0657  0.8882  0.8868
    1R01  A16a9 5801   2.207   3.440   1.898 -0.1803 -0.0704  0.5617
    1R01  A16aa 5802   2.242   3.597   1.889  0.9465  0.0251 -0.0112
    1R01  A16ab 5803   2.338   3.610   1.842  1.8700  1.2827 -0.6510
    1R01  A16ac 5804   2.260   3.639   1.989  0.5425  0.2063 -1.0797
    1R01  A16ad 5805   2.171   3.649   1.821  0.4262  0.8332 -0.6260
    1R01  A16ae 5806   2.332   3.359   1.939 -0.6911 -0.3761 -0.8090
    1R01  A16af 5807   2.296   3.304   2.068  0.2702 -0.1155  0.0261
    1R01  A16b0 5808   2.373   3.208   2.134 -0.4448 -0.1050 -0.6668
    1R01  A16b1 5809   2.346   3.145   2.218 -1.7023  0.3585  2.0076
    1R01  A16b2 5810   2.500   3.198   2.080  0.3332  0.2053  0.1191
    1R01  A16b3 5811   2.612   3.098   2.090  0.4681 -0.7500  0.1391
    1R01  A16b4 5812   2.577   2.999   2.083  1.0960  0.8971  1.6208
    1R01  A16b5 5813   2.660   3.161   1.952  0.4350 -0.2221 -0.6090
    1R01  A16b6 5814   2.657   3.103   1.863  1.6011  0.5045  0.6199
    1R01  A16b7 5815   2.810   3.194   1.974  0.0562 -0.1137 -0.1803
    1R01  A16b8 5816   2.857   3.268   1.911  0.2052 -0.0728 -0.2352
    1R01  A16b9 5817   2.870   3.053   1.990  0.4246 -0.2633  0.0629
    1R01  A16ba 5818   2.853   2.992   1.899  0.1788  0.0159  1.6883
    1R01  A16bb 5819   2.834   3.001   2.133  0.7329  0.7050 -0.2933
    1R01  A16bc 5820   2.782   2.904   2.127 -1.5082  0.3462  1.8404
    1R01  A16bd 5821   2.731   3.107   2.188 -0.3769  0.1334 -0.1240
    1R01  A16be 5822   2.706   3.106   2.297  0.4424 -0.6069  1.3910
    1R01  A16bf 5823   2.795   3.235   2.128  0.5384  0.0960 -0.0209
    1R01  A16c0 5824   2.886   3.270   2.180 -0.8102  1.5870 -1.9386
    1R01  A16c1 5825   2.723   3.315   2.137  2.7139  0.1172 -3.2694
    1R01  A16c2 5826   2.537   3.258   1.961  0.1726 -0.2095 -0.2286
    1R01  A16c3 5827   2.455   3.336   1.877  0.5565 -0.1386 -0.0188
    1R01  A16c4 5828   2.489   3.373   1.778  0.3030  0.9851  2.2348
    1R01  A16c5 5829   2.154   3.340   2.102  0.0518 -0.2195 -0.5825
    1R01  A16c6 5830   2.095   3.412   1.998  0.3889  0.2852 -0.2366
    1R01  A16c7 5831   1.957   3.435   1.995  0.0403  0.1375 -0.2516
    1R01  A16c8 5832   1.907   3.464   1.902 -3.0736 -1.7336 -2.1096
    1R01  A16c9 5833   1.891   3.390   2.114  0.2318  0.2155  0.5363
    1R01  A16ca 5834   1.750   3.356   2.158 -0.4935 -0.1069 -0.0483
    1R01  A16cb 5835   1.703   3.452   2.186 -0.0779  1.6253  1.1149
    1R01  A16cc 5836   1.816   3.276   2.280  0.8647 -0.4654  0.6736
    1R01  A16cd 5837   1.812   3.329   2.377 -1.5920 -0.8057 -0.7836
    1R01  A16ce 5838   1.746   3.135   2.281  0.0342 -0.0061 -0.1768
    1R01  A16cf 5839   1.749   3.069   2.368  1.4359  2.2842  0.4737
    1R01  A16d0 5840   1.783   3.059   2.148  0.1529 -0.3445  0.0527
    1R01  A16d1 5841   1.755   2.954   2.165 -0.4176 -0.4791 -1.0620
    1R01  A16d2 5842   1.911   3.060   2.058 -0.1378  0.3148 -0.0297
    1R01  A16d3 5843   1.855   3.132   1.955 -0.7378  0.0667  1.3313
    1R01  A16d4 5844   1.890   3.112   1.816 -0.0371  0.2421 -0.4054
    1R01  A16d5 5845   1.796   3.163   1.706 -0.2441 -0.0433 -0.5477
    1R01  A16d6 5846   1.781   3.088   1.632 -1.5783 -0.9900 -0.0211
    1R01  A16d7 5847   1.694   3.192   1.746 -1.2422  0.3296 -0.1686
    1R01  A16d8 5848   1.835   3.249   1.660  1.2958  0.1934  1.6875
    1R01  A16d9 5849   1.996   3.026   1.797  0.5221  0.4629  0.5320
    1R01  A16da 5850   2.066   2.959   1.899 -0.0383  0.0645  0.0529
    1R01  A16db 5851   2.005   2.956   2.033 -0.1822 -0.4445  0.1635
    1R01  A16dc 5852   2.041   2.863   2.151 -0.6934 -0.0240  0.2159
    1R01  A16dd 5853   1.958   2.808   2.167  1.7192  3.2696  0.7353
    1R01  A16de 5854   2.072   2.920   2.241  0.2948  2.3738 -0.7623
    1R01  A16df 5855   2.128   2.795   2.135  1.3494  2.1591  3.2031
    1R01  A16e0 5856   1.721   3.137   2.027  0.3177 -0.4459 -0.2621
    1R01  A16e1 5857   1.651   3.067   1.981  0.7185 -1.8730 -1.1789
    1R01  A16e2 5858   1.646   3.264   2.093  0.4495 -0.6946  0.6745
    1R01  A16e3 5859   1.562   3.308   2.029 -0.1563 -0.9149  0.7447
    1R01  A16e4 5860   1.604   3.189   2.227 -0.3849 -0.2425  0.2013
    1R01  A16e5 5861   1.555   3.252   2.307  1.0526  0.3153  2.9087
    1R01  A16e6 5862   1.544   3.096   2.202 -2.1308  0.6975  1.1132
    1R01  A16e7 5863   1.945   3.315   2.214  0.5393 -0.5769 -0.0429
    1R01  A16e8 5864   2.081   3.276   2.211 -0.3302 -0.4534  0.2895
    1R01  A16e9 5865   2.121   3.191   2.271 -1.6890 -1.3381 -0.2981
    1R01  A16ea 5866   0.380   3.866   1.526  0.9675  0.1573  0.0720
    1R01  A16eb 5867   0.443   3.866   1.434  1.8380  0.3085  3.4026
    1R01  A16ec 5868   0.267   3.848   1.510 -1.9283 -2.1559 -0.2217
    1R01  A16ed 5869   0.408   3.774   1.581 -0.9609 -1.9658  0.4865
    1R01  A16ee 5870   0.404   3.992   1.620  0.0827 -0.1270 -0.4453
    1R01  A16ef 5871   0.344   4.111   1.536  0.0128 -0.6945 -0.1231
    1R01  A16f0 5872   0.234   4.119   1.547 -0.0322 -1.3856  2.1967
    1R01  A16f1 5873   0.396   4.205   1.569  1.3179  0.0803  0.3924
    1R01  A16f2 5874   0.358   4.093   1.426 -0.6196 -0.7046 -0.3887
    1R01  A16f3 5875   0.555   4.010   1.643  0.0851 -0.0720 -0.2758
    1R01  A16f4 5876   0.572   3.959   1.776 -0.0000 -0.0063 -0.1187
    1R01  A16f5 5877   0.701   3.983   1.840 -0.1854  0.6923  0.2086
    1R01  A16f6 5878   0.713   3.989   1.953 -1.6065  0.3170 -2.1603
    1R01  A16f7 5879   0.802   4.040   1.761  0.1399 -0.1796 -0.1572
    1R01  A16f8 5880   0.934   4.111   1.771  0.0214 -0.2231 -0.0979
    1R01  A16f9 5881   1.020   4.049   1.787 -0.5901  3.3300  1.6019
    1R01  A16fa 5882   0.911   4.158   1.618 -0.8255 -0.7356  0.2384
    1R01  A16fb 5883   0.990   4.112   1.550  0.0291 -1.5092 -1.8539
    1R01  A16fc 5884   0.935   4.316   1.620  0.2289  0.0576  0.0773
    1R01  A16fd 5885   0.916   4.372   1.529 -1.4210 -1.9810 -0.3078
    1R01  A16fe 5886   1.079   4.327   1.675 -0.2623 -0.4356  0.0676
    1R01  A16ff 5887   1.157   4.271   1.621 -1.3950  0.2418 -0.9508
    1R01  A1700 5888   1.079   4.284   1.830  0.3689 -0.0875 -0.7844
    1R01  A1701 5889   1.146   4.204   1.858  0.3350 -1.3381 -2.0789
    1R01  A1702 5890   0.929   4.246   1.856  0.8800 -0.6556  0.0863
    1R01  A1703 5891   0.882   4.231   1.960 -3.0422 -2.3357 -0.8778
    1R01  A1704 5892   0.859   4.351   1.756 -0.5896 -0.6295  0.2504
    1R01  A1705 5893   0.745   4.340   1.758 -0.4277  0.5015 -0.4555
    1R01  A1706 5894   0.882   4.448   1.789 -0.4704 -1.9833  0.4644
    1R01  A1707 5895   0.782   4.074   1.633 -0.0594 -0.1095  0.1660
    1R01  A1708 5896   0.659   4.075   1.564  0.3180 -0.7873 -0.6159
    1R01  A1709 5897   0.642   4.136   1.474  2.6153 -0.5511 -0.7818
    1R01  A170a 5898   0.447   3.941   1.853 -1.1810  0.3838  0.1935
    1R01  A170b 5899   0.343   3.982   1.763 -0.3843  0.2358  0.1440
    1R01  A170c 5900   0.226   4.034   1.818 -0.4003 -0.1380  0.5747
    1R01  A170d 5901   0.150   4.080   1.756  2.5359 -0.9937 -2.9328
    1R01  A170e 5902   0.228   4.043   1.956 -0.1034  0.4476 -0.6476
    1R01  A170f 5903   0.156   4.111   2.071  0.4261  0.4080  0.2216
    1R01  A1710 5904   0.161   4.215   2.041 -1.4465  1.4031 -0.3851
    1R01  A1711 5905   0.277   4.073   2.161 -0.1681  0.3427 -0.4811
    1R01  A1712 5906   0.343   4.158   2.188  0.2612 -1.3415  1.1225
    1R01  A1713 5907   0.207   4.023   2.291  0.4700  0.1002  0.1481
    1R01  A1714 5908   0.268   4.022   2.379 -0.8415 -1.6049 -1.8519
    1R01  A1715 5909   0.134   3.895   2.254  0.7039 -0.1278  0.0104
    1R01  A1716 5910   0.096   3.844   2.340  1.8193 -0.1747  2.5877
    1R01  A1717 5911   0.191   3.792   2.158  0.3142 -0.4254 -0.9292
    1R01  A1718 5912   0.095   3.819   2.064  0.1636 -0.0474 -0.6569
    1R01  A1719 5913   0.070   3.744   1.953 -0.5952  0.2156 -0.1523
    1R01  A171a 5914  -0.056   3.761   1.871  0.0931  0.2773  0.3265
    1R01  A171b 5915  -0.103   3.664   1.839 -2.9112 -0.6899 -0.4816
    1R01  A171c 5916  -0.028   3.824   1.788 -1.2510  0.6801 -0.5872
    1R01  A171d 5917  -0.126   3.816   1.934 -1.3366  2.8251  2.0023
    1R01  A171e 5918   0.175   3.648   1.937  0.0509 -0.8987 -0.0469
    1R01  A171f 5919   0.275   3.621   2.029  0.5282 -0.9910  0.5823
    1R01  A1720 5920   0.283   3.687   2.154 -0.2527 -0.2820  0.1247
    1R01  A1721 5921   0.376   3.641   2.257 -0.2282  0.0984 -0.1114
    1R01  A1722 5922   0.352   3.542   2.301  1.1955 -1.0567  0.5821
    1R01  A1723 5923   0.479   3.654   2.225  1.5871  3.7810 -1.6039
    1R01  A1724 5924   0.370   3.711   2.342 -0.7485 -0.8822  2.6951
    1R01  A1725 5925   0.019   3.921   2.144 -0.5963 -0.4991  0.0211
    1R01  A1726 5926  -0.075   3.885   2.180 -0.9105  0.8273 -1.6357
    1R01  A1727 5927   0.020   4.081   2.140  0.0158 -0.2422  0.5536
    1R01  A1728 5928  -0.066   4.135   2.096  1.3451  2.1416  1.6868
    1R01  A1729 5929   0.068   4.110   2.281 -0.9337 -0.2720 -0.1852
    1R01  A172a 5930  -0.012   4.067   2.354 -0.7448 -0.1648 -0.7847
    1R01  A172b 5931   0.077   4.209   2.322  0.5203  1.2812  2.0433
    1R01  A172c 5932   0.329   4.001   2.036  0.1089  0.0822  0.4531
    1R01  A172d 5933   0.444   3.941   1.993  0.5927  0.9490  0.0231
    1R01  A172e 5934   0.530   3.917   2.053  0.3182  1.6701  1.5965
    1R01  A172f 5935   0.027   2.707   1.672  0.0871  0.4244 -0.7274
    1R01  A1730 5936  -0.018   2.611   1.652 -5.2098  1.6627 -2.6606
    1R01  A1731 5937  -0.012   2.768   1.586 -0.3170  1.2089  0.8361
    1R01  A1732 5938   0.140   2.697   1.651  1.4350 -0.7688  0.0072
    1R01  A1733 5939   0.013   2.772   1.814  0.0934 -0.3067 -0.0850
    1R01  A1734 5940  -0.143   2.784   1.834  0.3170  0.9593  0.3529
    1R01  A1735 5941  -0.188   2.684   1.810 -1.2883  0.5006 -1.7995
    1R01  A1736 5942  -0.189   2.860   1.766 -3.3462  1.2672  0.9627
    1R01  A1737 5943  -0.176   2.816   1.936 -3.1818 -0.2615  2.5332
    1R01  A1738 5944   0.094   2.908   1.828 -0.2886 -0.7837  0.6578
    1R01  A1739 5945   0.187   2.889   1.935 -0.0608  0.1667  0.9322
    1R01  A173a 5946   0.263   2.997   1.985  0.0639 -0.0722  0.9398
    1R01  A173b 5947   0.316   2.993   2.078 -2.4277 -1.6552  0.0659
    1R01  A173c 5948   0.255   3.108   1.910 -0.1562  0.6071  0.4871
    1R01  A173d 5949   0.301   3.252   1.924  0.6460 -0.5559 -0.2707
    1R01  A173e 5950   0.404   3.261   1.893 -0.9332 -0.9654  0.7986
    1R01  A173f 5951   0.195   3.285   1.805  0.7238 -0.4076 -0.1390
    1R01  A1740 5952   0.243   3.314   1.716 -2.4423  2.1738  3.2921
    1R01  A1741 5953   0.100   3.403   1.860  0.6645 -0.2340 -0.8208
    1R01  A1742 5954  -0.002   3.411   1.823 -2.5425 -0.8640  1.6372
    1R01  A1743 5955   0.201   3.520   1.863  0.1411  0.1516  0.4416
    1R01  A1744 5956   0.234   3.545   1.764  0.6512  0.0033 -0.5419
    1R01  A1745 5957   0.309   3.484   1.972  0.1083 -0.2105  0.0510
    1R01  A1746 5958   0.411   3.486   1.934 -0.0913 -0.3287  1.1734
    1R01  A1747 5959   0.264   3.349   2.037  0.0853 -0.4020  0.2198
    1R01  A1748 5960   0.309   3.324   2.139  0.2372 -0.7459  1.0722
    1R01  A1749 5961   0.101   3.363   2.016 -0.0008 -1.1899  0.0045
    1R01  A174a 5962   0.051   3.451   2.067 -2.2712  1.2927  0.3064
    1R01  A174b 5963   0.050   3.267   2.035 -0.6035 -3.9831  1.8867
    1R01  A174c 5964   0.163   3.131   1.811  0.9198 -0.3646 -0.4027
    1R01  A174d 5965   0.082   3.033   1.756  0.6000 -0.4070  0.1428
    1R01  A174e 5966   0.002   3.055   1.680  0.0005 -0.3018 -1.6992
    1R01  A174f 5967   0.179   2.753   1.987 -0.0675  0.0675  0.4604
    1R01  A1750 5968   0.082   2.677   1.918 -0.2685 -0.2154  1.2307
    1R01  A1751 5969   0.047   2.545   1.956  0.4425 -1.0471 -0.4293
    1R01  A1752 5970  -0.038   2.489   1.917 -0.6006 -3.1335 -1.1377
    1R01  A1753 5971   0.145   2.496   2.039  0.4889  0.1332 -0.4535
    1R01  A1754 5972   0.172   2.379   2.131 -0.2009 -0.0945 -0.0714
    1R01  A1755 5973   0.098   2.366   2.208  0.7220  0.5059  0.5822
    1R01  A1756 5974   0.290   2.454   2.196 -0.9825  1.2365  0.1709
    1R01  A1757 5975   0.271   2.494   2.293  2.7706  1.4034  0.5891
    1R01  A1758 5976   0.417   2.362   2.205  0.2151 -0.1258  0.1043
    1R01  A1759 5977   0.490   2.394   2.271 -0.3494 -1.3198 -3.1765
    1R01  A175a 5978   0.465   2.338   2.058 -0.0438  0.6794  0.3339
    1R01  A175b 5979   0.565   2.285   2.058  3.1702  1.9684  1.8251
    1R01  A175c 5980   0.463   2.441   1.942 -0.7355  0.8031  0.4577
    1R01  A175d 5981   0.356   2.378   1.878 -0.9667 -0.1306 -0.8570
    1R01  A175e 5982   0.333   2.377   1.738 -0.0934  0.1757 -0.3735
    1R01  A175f 5983   0.241   2.269   1.675  0.6407 -0.5881 -0.0021
    1R01  A1760 5984   0.206   2.205   1.759  2.7793  0.8512  0.8143
    1R01  A1761 5985   0.144   2.297   1.631 -1.5638 -2.2879  1.3055
    1R01  A1762 5986   0.293   2.207   1.602 -0.5974  0.2455 -1.3053
    1R01  A1763 5987   0.423   2.456   1.668  0.2438  0.9252  0.4835
    1R01  A1764 5988   0.538   2.514   1.731  0.0706  0.2331  0.4212
    1R01  A1765 5989   0.569   2.491   1.864 -0.5496 -0.2798 -0.4220
    1R01  A1766 5990   0.701   2.514   1.924  0.7106  0.2454 -0.1188
    1R01  A1767 5991   0.733   2.615   1.907  2.9882 -0.7859  0.0448
    1R01  A1768 5992   0.696   2.500   2.033  0.0109 -3.2535 -1.7175
    1R01  A1769 5993   0.759   2.439   1.881 -1.0757  3.7214 -0.1026
    1R01  A176a 5994   0.347   2.264   1.980  0.3450 -0.3207  0.0377
    1R01  A176b 5995   0.383   2.168   1.952 -0.3687 -0.8714 -1.9197
    1R01  A176c 5996   0.234   2.240   2.090 -0.1027 -0.0041 -0.1156
    1R01  A176d 5997   0.166   2.159   2.075 -3.2073  1.7378 -0.0627
    1R01  A176e 5998   0.330   2.221   2.216 -0.0721 -0.2118 -0.0473
    1R01  A176f 5999   0.277   2.207   2.308  0.4882  0.1161 -1.3617
    1R01  A1770 6000   0.396   2.134   2.204  0.2712 -0.3068 -1.9602
    1R01  A1771 6001   0.254   2.559   2.098 -0.6386  0.2610  0.4727
    1R01  A1772 6002   0.275   2.692   2.080  0.1051  0.3665  0.7067
    1R01  A1773 6003   0.361   2.750   2.125 -0.8702  1.8800  0.7039
    1R01  A1774 6004   1.221   3.359   2.535 -0.1040  0.2569  0.5833
    1R01  A1775 6005   1.177   3.283   2.476 -0.5305 -0.4680  1.1655
    1R01  A1776 6006   1.326   3.327   2.566  0.7895  1.5369 -1.9006
    1R01  A1777 6007   1.232   3.440   2.462  0.9791  1.0514  0.3062
    1R01  A1778 6008   1.139   3.390   2.664 -0.7951 -0.3996 -0.1046
    1R01  A1779 6009   0.986   3.377   2.633 -0.0511  0.3074  1.2149
    1R01  A177a 6010   0.952   3.453   2.558  0.9139  0.8277 -1.8544
    1R01  A177b 6011   0.952   3.274   2.611 -2.6042  0.6512  2.4331
    1R01  A177c 6012   0.933   3.413   2.722  0.5168  1.2085  0.5394
    1R01  A177d 6013   1.161   3.541   2.708 -1.3907  0.0728 -0.6078
    1R01  A177e 6014   1.198   3.532   2.845 -0.2470  0.5954 -0.0252
    1R01  A177f 6015   1.229   3.647   2.917  0.0104 -0.3110  0.5551
    1R01  A1780 6016   1.255   3.646   3.021 -1.0298  1.1900  3.0234
    1R01  A1781 6017   1.217   3.759   2.843 -1.4877 -0.0134  0.0500
    1R01  A1782 6018   1.256   3.903   2.855 -0.8440  0.0802 -0.0643
    1R01  A1783 6019   1.354   3.904   2.896 -0.6425 -3.2144 -1.1704
    1R01  A1784 6020   1.235   3.911   2.692 -0.1085  0.8190 -0.3996
    1R01  A1785 6021   1.337   3.918   2.648  3.4952 -0.8279  0.5785
    1R01  A1786 6022   1.138   4.039   2.679  0.4100  0.1316 -0.1809
    1R01  A1787 6023   1.082   4.049   2.587  0.0289 -0.1601  1.3021
    1R01  A1788 6024   1.235   4.158   2.721 -0.1151  0.0964 -0.1924
    1R01  A1789 6025   1.331   4.167   2.668 -0.1755  2.5696 -0.4196
    1R01  A178a 6026   1.249   4.134   2.881 -0.6971  0.0403  0.0706
    1R01  A178b 6027   1.350   4.133   2.917  0.9901 -0.5886  0.1961
    1R01  A178c 6028   1.167   4.012   2.920 -0.6211  0.1043 -0.0319
    1R01  A178d 6029   1.140   4.005   3.024  1.5218 -3.0288 -1.5811
    1R01  A178e 6030   1.053   4.031   2.815  0.3954  0.0128 -0.2758
    1R01  A178f 6031   0.983   3.950   2.826  0.2177  1.2459  0.5305
    1R01  A1790 6032   0.991   4.125   2.832  1.2607 -3.3208 -0.6162
    1R01  A1791 6033   1.196   3.762   2.707  0.1781 -0.5836 -0.9217
    1R01  A1792 6034   1.155   3.656   2.627 -0.0948 -0.9158 -0.1709
    1R01  A1793 6035   1.145   3.666   2.521  0.1330  3.3361  1.2925
    1R01  A1794 6036   1.207   3.391   2.888  0.2141  0.3074  0.1594
    1R01  A1795 6037   1.184   3.296   2.781  0.2504  0.3154  0.5512
    1R01  A1796 6038   1.229   3.161   2.785  0.3217  0.2566 -0.6492
    1R01  A1797 6039   1.214   3.088   2.707  2.8251  0.4238  1.8438
    1R01  A1798 6040   1.302   3.127   2.902  0.1786  0.5828 -0.7508
    1R01  A1799 6041   1.340   2.997   2.978 -0.2716 -0.2998  0.4571
    1R01  A179a 6042   1.266   2.920   2.961 -2.4365 -0.5875  0.1285
    1R01  A179b 6043   1.329   3.098   3.109  0.2954 -0.0013  1.4893
    1R01  A179c 6044   1.247   3.079   3.178  0.8768  0.7268 -0.5845
    1R01  A179d 6045   1.460   3.074   3.193 -1.1280 -0.3118 -0.2877
    1R01  A179e 6046   1.461   3.106   3.297 -3.1726 -0.9720  0.0376
    1R01  A179f 6047   1.579   3.122   3.103 -0.9577 -0.2025  0.0686
    1R01  A17a0 6048   1.671   3.119   3.161  0.4565  0.4106 -1.4571
    1R01  A17a1 6049   1.597   3.237   3.010 -0.2378  0.6837  0.7204
    1R01  A17a2 6050   1.579   3.157   2.900 -0.0792 -0.3430 -0.5934
    1R01  A17a3 6051   1.600   3.191   2.764  0.0362 -0.2439 -0.1179
    1R01  A17a4 6052   1.591   3.086   2.649  0.0618  0.0313 -0.3248
    1R01  A17a5 6053   1.494   3.047   2.641  0.1879 -0.2230  0.0568
    1R01  A17a6 6054   1.652   3.002   2.669 -0.9373  2.4565  0.5089
    1R01  A17a7 6055   1.604   3.125   2.551 -2.5791 -2.8569 -0.4191
    1R01  A17a8 6056   1.644   3.323   2.757  0.5352  0.3455 -0.7219
    1R01  A17a9 6057   1.665   3.411   2.866  0.8635 -0.0960 -1.1938
    1R01  A17aa 6058   1.643   3.373   3.000 -0.8179  0.3883 -0.2995
    1R01  A17ab 6059   1.668   3.462   3.119  0.3750  0.9102 -0.1448
    1R01  A17ac 6060   1.728   3.553   3.094 -1.6492  0.1885  1.5444
    1R01  A17ad 6061   1.721   3.404   3.195 -0.4797 -0.2954 -3.0878
    1R01  A17ae 6062   1.584   3.510   3.165  0.5148 -2.3033  1.8885
    1R01  A17af 6063   1.582   3.027   2.974 -0.2740  0.3260  0.1118
    1R01  A17b0 6064   1.683   2.976   2.972 -0.0824  1.2660  0.6956
    1R01  A17b1 6065   1.470   2.919   2.993  0.4499 -0.5949  0.1013
    1R01  A17b2 6066   1.484   2.824   2.941 -1.7192  1.2311 -1.9620
    1R01  A17b3 6067   1.474   2.912   3.154 -0.3406 -0.3840 -0.6904
    1R01  A17b4 6068   1.570   2.879   3.194 -1.9460 -0.6424  0.8884
    1R01  A17b5 6069   1.392   2.859   3.211  0.4340 -0.2935  1.5706
    1R01  A17b6 6070   1.299   3.209   3.015 -0.5604  0.3349  0.6941
    1R01  A17b7 6071   1.246   3.343   3.017 -0.1849 -0.1278  0.3367
    1R01  A17b8 6072   1.244   3.408   3.101 -0.4148  1.7217 -0.2901
    1R01  A17b9 6073   4.215   2.102   2.019  1.1103 -0.4243 -0.2133
    1R01  A17ba 6074   4.179   2.205   2.029  0.2220  0.4653  0.2122
    1R01  A17bb 6075   4.294   2.082   2.099 -2.5646  0.0671 -0.9230
    1R01  A17bc 6076   4.265   2.082   1.921 -0.4724 -2.0912  0.8469
    1R01  A17bd 6077   4.082   2.019   2.047 -0.0520  0.1488 -0.5483
    1R01  A17be 6078   4.100   1.887   1.960  0.2491  0.3468 -0.4824
    1R01  A17bf 6079   4.103   1.896   1.851  3.1605 -1.6539  2.8954
    1R01  A17c0 6080   4.012   1.822   1.971  0.2703 -0.0165 -1.4171
    1R01  A17c1 6081   4.194   1.840   1.987 -1.3228 -0.0870  3.0983
    1R01  A17c2 6082   3.960   2.092   1.989 -0.0125 -0.2560 -0.1590
    1R01  A17c3 6083   3.868   2.104   2.095 -0.2243 -0.1581 -0.9696
    1R01  A17c4 6084   3.750   2.187   2.086  0.1985  0.4524 -0.2909
    1R01  A17c5 6085   3.675   2.216   2.166 -0.5916  0.9918 -1.0893
    1R01  A17c6 6086   3.731   2.237   1.960 -0.4237  0.1618  0.1777
    1R01  A17c7 6087   3.645   2.339   1.885 -0.3611  0.2505  0.4045
    1R01  A17c8 6088   3.662   2.440   1.923 -1.5940 -1.6657 -2.5633
    1R01  A17c9 6089   3.745   2.312   1.762  0.4102  0.1668 -0.1134
    1R01  A17ca 6090   3.809   2.392   1.734  0.2678 -0.3313 -1.4100
    1R01  A17cb 6091   3.656   2.253   1.650 -0.3675 -0.6295  0.7909
    1R01  A17cc 6092   3.709   2.188   1.580  0.0199 -0.0213 -1.5097
    1R01  A17cd 6093   3.594   2.387   1.607 -0.2258 -0.5347 -0.2788
    1R01  A17ce 6094   3.665   2.458   1.562 -0.7753 -0.1810 -0.0037
    1R01  A17cf 6095   3.485   2.427   1.721  0.0482  0.5234 -0.3950
    1R01  A17d0 6096   3.504   2.531   1.754  2.1855 -0.2205 -0.3829
    1R01  A17d1 6097   3.494   2.317   1.828 -0.3331 -0.2906 -0.5787
    1R01  A17d2 6098   3.415   2.305   1.902  1.2019 -0.0043  0.5525
    1R01  A17d3 6099   3.538   2.196   1.735  0.5571 -0.3574 -0.1036
    1R01  A17d4 6100   3.454   2.165   1.679 -2.4716 -1.7788 -0.3990
    1R01  A17d5 6101   3.560   2.112   1.794 -0.9480 -0.3273  0.4474
    1R01  A17d6 6102   3.819   2.219   1.854 -0.0799  0.7604  0.1173
    1R01  A17d7 6103   3.935   2.142   1.863 -0.8125 -0.2049  0.0512
    1R01  A17d8 6104   3.997   2.126   1.777 -0.8300  3.1689 -1.0446
    1R01  A17d9 6105   3.919   2.033   2.215 -0.6508 -0.5741  0.1133
    1R01  A17da 6106   4.053   1.996   2.193 -1.0984 -0.2279 -0.7258
    1R01  A17db 6107   4.124   1.920   2.290  0.3217 -0.7803  0.5561
    1R01  A17dc 6108   4.228   1.897   2.275  1.6755  1.9174  0.1189
    1R01  A17dd 6109   4.055   1.885   2.399  0.2840 -0.8725 -0.0915
    1R01  A17de 6110   4.055   1.781   2.507 -1.0568 -0.4247  0.3243
    1R01  A17df 6111   4.050   1.685   2.459 -2.3597  1.4943 -1.3773
    1R01  A17e0 6112   3.911   1.823   2.535 -0.6636  0.9240 -0.5088
    1R01  A17e1 6113   3.838   1.745   2.504  0.3211  0.4533 -1.7166
    1R01  A17e2 6114   3.911   1.855   2.691 -0.5115 -0.4479 -0.1116
    1R01  A17e3 6115   3.817   1.839   2.741  0.7473 -1.5216 -0.9751
    1R01  A17e4 6116   3.999   1.980   2.716  0.2026 -0.8012  0.5592
    1R01  A17e5 6117   3.973   2.018   2.813  1.0549  0.6793  1.4252
    1R01  A17e6 6118   4.017   2.100   2.630  0.2518 -0.1911  0.3334
    1R01  A17e7 6119   4.147   2.064   2.605  0.6052  0.2737  0.7535
    1R01  A17e8 6120   4.232   2.138   2.510  0.3238 -0.3520 -0.4764
    1R01  A17e9 6121   4.382   2.105   2.498 -0.1080 -0.1559 -0.4253
    1R01  A17ea 6122   4.436   2.164   2.575  1.1078  0.1792 -0.1932
    1R01  A17eb 6123   4.421   2.133   2.398  1.1738 -2.4398  0.4720
    1R01  A17ec 6124   4.397   1.996   2.516 -3.9259 -0.2559 -1.6299
    1R01  A17ed 6125   4.164   2.245   2.454 -0.3529 -0.4789 -0.0159
    1R01  A17ee 6126   4.040   2.283   2.493 -0.3382  1.2800  0.6524
    1R01  A17ef 6127   3.952   2.211   2.581  0.3796 -0.1872  0.0919
    1R01  A17f0 6128   3.808   2.248   2.611  0.5479 -0.0610 -0.1042
    1R01  A17f1 6129   3.752   2.197   2.533 -0.0685  0.9354 -1.1005
    1R01  A17f2 6130   3.780   2.210   2.710  1.0368  0.5716 -0.3191
    1R01  A17f3 6131   3.795   2.356   2.605  1.0605  1.2678  2.1373
    1R01  A17f4 6132   4.148   1.935   2.682  0.4359  0.2090 -0.3151
    1R01  A17f5 6133   4.222   1.954   2.765  1.6437  2.6207  1.1560
    1R01  A17f6 6134   4.135   1.783   2.639  0.0076  0.3336  0.7409
    1R01  A17f7 6135   4.222   1.727   2.658  0.7989  0.9956 -0.6047
    1R01  A17f8 6136   4.014   1.748   2.738  0.4389  0.0216  0.4286
    1R01  A17f9 6137   4.050   1.758   2.835 -0.7596 -0.9862 -2.1692
    1R01  A17fa 6138   3.976   1.648   2.728  0.0431  0.1199 -0.5660
    1R01  A17fb 6139   3.925   1.923   2.424 -0.4052  0.1756 -0.3647
    1R01  A17fc 6140   3.844   1.989   2.330 -0.3759 -0.2446 -0.3941
    1R01  A17fd 6141   3.737   2.005   2.340 -0.3763  1.1653  0.8642
    1R01  A17fe 6142   3.343   4.279   3.214  0.0549  0.2884 -0.1698
    1R01  A17ff 6143   3.423   4.251   3.284 -3.3609 -2.0302  4.0368
    1R01  A1800 6144   3.379   4.308   3.115  3.9448 -3.3348  0.8883
    1R01  A1801 6145   3.289   4.364   3.248 -0.6755 -0.4556 -1.0437
    1R01  A1802 6146   3.249   4.154   3.180  0.4888 -0.1239 -1.0017
    1R01  A1803 6147   3.178   4.100   3.303 -0.6567 -0.4439  0.2202
    1R01  A1804 6148   3.114   4.019   3.275 -0.2136 -0.2921  1.6746
    1R01  A1805 6149   3.248   4.054   3.372  0.1839  0.4403 -0.0315
    1R01  A1806 6150   3.118   4.176   3.354 -0.0384 -0.3410  0.4690
    1R01  A1807 6151   3.313   4.029   3.107  0.1723 -0.3279 -1.0772
    1R01  A1808 6152   3.288   4.049   2.971  0.4288 -0.7334  0.7904
    1R01  A1809 6153   3.355   3.976   2.869  0.2478 -0.0402  0.1443
    1R01  A180a 6154   3.331   3.982   2.767  0.2814 -0.5279 -0.1816
    1R01  A180b 6155   3.442   3.886   2.920 -0.3607  0.5406  0.3803
    1R01  A180c 6156   3.517   3.764   2.872  0.0042  0.2384 -0.0704
    1R01  A180d 6157   3.597   3.782   2.812 -0.6294  1.4944  1.9174
    1R01  A180e 6158   3.547   3.744   3.025  0.6457  0.5869 -0.9038
    1R01  A180f 6159   3.645   3.769   3.060  0.8473  0.3615 -0.5268
    1R01  A1810 6160   3.488   3.603   3.052 -0.1039  0.6420 -0.6984
    1R01  A1811 6161   3.456   3.584   3.154 -0.1332 -2.1171  0.8738
    1R01  A1812 6162   3.590   3.504   2.984 -0.2255  0.1235 -0.0956
    1R01  A1813 6163   3.605   3.398   3.009  1.0168 -1.6391  1.1778
    1R01  A1814 6164   3.563   3.523   2.828  0.0460  0.6458 -0.0825
    1R01  A1815 6165   3.656   3.547   2.775  1.2478  0.5050  0.2579
    1R01  A1816 6166   3.452   3.629   2.823  0.1353  0.0469 -0.0981
    1R01  A1817 6167   3.397   3.636   2.728 -1.1230 -1.1819 -0.0644
    1R01  A1818 6168   3.373   3.598   2.949  0.3148 -0.1700  0.0828
    1R01  A1819 6169   3.329   3.495   2.948  0.9455 -2.6634  0.8432
    1R01  A181a 6170   3.297   3.669   2.962 -0.0358 -0.2121 -0.9223
    1R01  A181b 6171   3.467   3.864   3.051 -0.5366 -0.2061 -0.0470
    1R01  A181c 6172   3.412   3.934   3.154  0.7827 -0.4403 -0.4056
    1R01  A181d 6173   3.440   3.917   3.256 -2.8425 -1.6094 -0.0968
    1R01  A181e 6174   3.186   4.158   2.955  0.6522 -0.0531 -0.1251
    1R01  A181f 6175   3.156   4.211   3.080  0.1335  0.1515 -0.5041
    1R01  A1820 6176   3.037   4.281   3.107 -0.0021  0.4911 -0.3713
    1R01  A1821 6177   2.995   4.300   3.203 -1.5259  0.0266 -1.4697
    1R01  A1822 6178   2.955   4.304   2.999 -0.3665  0.6328  0.1665
    1R01  A1823 6179   2.824   4.354   2.955 -0.1448 -0.1394 -0.1496
    1R01  A1824 6180   2.736   4.294   2.999 -3.2163 -0.6253  0.1034
    1R01  A1825 6181   2.856   4.312   2.806 -0.2305  0.3812 -0.3545
    1R01  A1826 6182   2.797   4.230   2.776 -1.0671  1.7667  1.1755
    1R01  A1827 6183   2.826   4.430   2.708  0.5077  1.3626  0.3874
    1R01  A1828 6184   2.804   4.415   2.599 -0.5554 -1.9099 -2.0287
    1R01  A1829 6185   2.907   4.555   2.737 -0.4229  0.5824  0.5428
    1R01  A182a 6186   2.875   4.634   2.674  1.9544 -1.0937 -1.7223
    1R01  A182b 6187   3.056   4.550   2.759  1.0198  0.1005 -0.3824
    1R01  A182c 6188   3.038   4.571   2.897  0.2208 -0.0160  0.1017
    1R01  A182d 6189   3.137   4.624   2.980 -0.4340 -0.1104 -0.1688
    1R01  A182e 6190   3.111   4.678   3.121 -0.3851  0.1564  0.0976
    1R01  A182f 6191   3.056   4.770   3.116  0.5312 -1.4343 -2.7475
    1R01  A1830 6192   3.053   4.609   3.179  0.5369  0.2987 -0.7852
    1R01  A1831 6193   3.204   4.709   3.176 -1.0816  1.3399  0.7128
    1R01  A1832 6194   3.258   4.651   2.913  0.5922 -0.1387 -0.5815
    1R01  A1833 6195   3.267   4.651   2.775 -0.0019  0.1143 -0.6362
    1R01  A1834 6196   3.166   4.614   2.687  0.0444  0.1360  0.2416
    1R01  A1835 6197   3.156   4.681   2.551 -0.0025  0.1951 -0.3277
    1R01  A1836 6198   3.260   4.681   2.503  0.2399  0.7458 -0.2491
    1R01  A1837 6199   3.082   4.623   2.487  1.2181 -0.0054 -0.5329
    1R01  A1838 6200   3.118   4.787   2.565 -0.4876 -0.4119 -0.6077
    1R01  A1839 6201   2.890   4.590   2.883 -0.4394  0.0266 -0.3178
    1R01  A183a 6202   2.859   4.706   2.909  0.7798  3.5445 -1.1374
    1R01  A183b 6203   2.780   4.501   2.936  0.4278 -0.1890 -0.4272
    1R01  A183c 6204   2.720   4.540   3.015 -0.1156  1.0048 -0.2994
    1R01  A183d 6205   2.706   4.483   2.789  0.0661  0.6010  0.1294
    1R01  A183e 6206   2.617   4.415   2.802 -0.5621 -1.3160  1.4855
    1R01  A183f 6207   2.662   4.581   2.753 -0.0270  2.1539 -0.7228
    1R01  A1840 6208   2.993   4.264   2.872  0.3878 -0.0164  0.1663
    1R01  A1841 6209   3.102   4.184   2.842 -0.0524 -0.2288 -0.3602
    1R01  A1842 6210   3.116   4.151   2.742 -2.5613  0.3241 -2.1622
    1R01  A1843 6211   2.279   3.556   2.814  0.9458 -1.0582  0.3414
    1R01  A1844 6212   2.304   3.552   2.923 -1.7268 -1.2169  0.5621
    1R01  A1845 6213   2.344   3.499   2.741  2.1177 -1.6541 -1.0916
    1R01  A1846 6214   2.173   3.519   2.798 -2.2039 -0.3638 -1.4401
    1R01  A1847 6215   2.287   3.707   2.773  0.8272  0.4425 -1.3620
    1R01  A1848 6216   2.182   3.781   2.862  0.2053 -0.8468 -0.4016
    1R01  A1849 6217   2.155   3.720   2.953 -1.2458 -0.7119 -0.5997
    1R01  A184a 6218   2.231   3.862   2.907  1.5575 -1.3101  2.8080
    1R01  A184b 6219   2.099   3.815   2.809  2.1382  0.7269  1.0732
    1R01  A184c 6220   2.260   3.742   2.626  0.2970  0.5736 -0.4822
    1R01  A184d 6221   2.354   3.839   2.585  0.0495 -0.4864  0.2069
    1R01  A184e 6222   2.357   3.887   2.448  0.1393  0.0702  0.1512
    1R01  A184f 6223   2.422   3.969   2.416  1.4364  1.0859  0.2861
    1R01  A1850 6224   2.272   3.814   2.363 -0.0010 -0.1382  0.3590
    1R01  A1851 6225   2.210   3.827   2.226  0.2911  0.8871 -0.1708
    1R01  A1852 6226   2.290   3.812   2.151  1.2569 -2.0136  1.9049
    1R01  A1853 6227   2.124   3.694   2.263 -0.1341  1.1246 -0.3318
    1R01  A1854 6228   2.152   3.597   2.219 -1.0948  1.6364  1.8561
    1R01  A1855 6229   1.975   3.743   2.241  0.2204  0.5441 -0.0771
    1R01  A1856 6230   1.894   3.684   2.286  1.0785  1.6191 -0.0331
    1R01  A1857 6231   1.971   3.768   2.084 -0.8365  0.5562  0.0619
    1R01  A1858 6232   2.008   3.686   2.029 -2.4597 -1.4098  0.7471
    1R01  A1859 6233   2.056   3.904   2.060  0.0660 -0.0423 -0.4901
    1R01  A185a 6234   2.132   3.896   1.985  0.3991  1.5732  1.9100
    1R01  A185b 6235   2.111   3.941   2.195 -0.1753  0.8529 -0.3094
    1R01  A185c 6236   2.155   4.045   2.202  1.1062 -0.0390 -0.1069
    1R01  A185d 6237   1.989   3.889   2.291 -0.9035  0.5506 -0.1360
    1R01  A185e 6238   1.997   3.907   2.398 -1.4936  2.1567 -2.6739
    1R01  A185f 6239   1.898   3.945   2.266  2.6548 -0.6085  1.1940
    1R01  A1860 6240   2.191   3.709   2.397  0.5962 -0.5247  0.8577
    1R01  A1861 6241   2.176   3.673   2.533 -0.2479 -0.6300 -0.5006
    1R01  A1862 6242   2.112   3.602   2.568 -0.1092 -1.4719 -1.3388
    1R01  A1863 6243   2.449   3.849   2.685 -0.1094  0.0173  0.3098
    1R01  A1864 6244   2.421   3.776   2.801 -0.1933 -0.4525  0.4312
    1R01  A1865 6245   2.512   3.775   2.911  1.2152  0.2882 -0.8651
    1R01  A1866 6246   2.485   3.730   3.007 -0.5069 -2.2975 -0.6475
    1R01  A1867 6247   2.631   3.838   2.890  0.6252  0.4404 -0.3580
    1R01  A1868 6248   2.769   3.849   2.946 -0.3668  0.2407 -0.4094
    1R01  A1869 6249   2.760   3.911   3.038 -4.1291 -0.5683 -1.8323
    1R01  A186a 6250   2.807   3.912   2.812  0.0821 -0.0078 -0.9154
    1R01  A186b 6251   2.845   4.014   2.833 -2.0166  1.4326  0.4491
    1R01  A186c 6252   2.913   3.826   2.749 -0.1357 -0.1420  0.3921
    1R01  A186d 6253   2.973   3.874   2.668  3.9125 -0.6095  0.8867
    1R01  A186e 6254   2.837   3.682   2.728 -0.5298 -0.1367 -0.0766
    1R01  A186f 6255   2.744   3.702   2.675  1.2543  1.3119 -1.4789
    1R01  A1870 6256   2.901   3.553   2.682 -0.0783  0.2730  0.0176
    1R01  A1871 6257   2.913   3.510   2.814 -0.0196  0.2072  0.2159
    1R01  A1872 6258   2.905   3.371   2.842  0.0966 -0.1205  0.0792
    1R01  A1873 6259   2.891   3.329   2.988 -0.1684  0.6549 -0.4995
    1R01  A1874 6260   2.884   3.219   3.001  2.3924 -0.4167  2.6434
    1R01  A1875 6261   2.802   3.365   3.037  2.1348  1.3903 -1.8132
    1R01  A1876 6262   2.986   3.345   3.031  0.9131  0.2073 -3.2017
    1R01  A1877 6263   2.893   3.275   2.736  0.2504 -0.2963 -0.0933
    1R01  A1878 6264   2.866   3.326   2.612  0.1947 -0.4830  0.6157
    1R01  A1879 6265   2.864   3.463   2.586  0.3284 -0.0317  0.2014
    1R01  A187a 6266   2.804   3.514   2.458 -0.3374  0.7036 -0.1506
    1R01  A187b 6267   2.799   3.620   2.439 -1.1966  1.1301  0.2560
    1R01  A187c 6268   2.705   3.473   2.450 -0.7917 -0.5631  0.8530
    1R01  A187d 6269   2.874   3.485   2.378  2.8563  0.6670  1.3223
    1R01  A187e 6270   2.827   3.620   2.874  0.1334  1.1876 -0.6318
    1R01  A187f 6271   2.723   3.573   2.898  1.4089  1.7118 -0.0945
    1R01  A1880 6272   2.872   3.734   2.971 -0.2467  0.3953  0.1698
    1R01  A1881 6273   2.899   3.705   3.073  0.6730 -1.4711 -0.3526
    1R01  A1882 6274   2.988   3.795   2.885  0.0188  0.1773 -0.3095
    1R01  A1883 6275   3.030   3.891   2.920  0.1499  0.1321 -0.2707
    1R01  A1884 6276   3.072   3.721   2.872  0.3831 -0.2886  1.8252
    1R01  A1885 6277   2.662   3.904   2.775 -0.4048  0.6338 -0.4897
    1R01  A1886 6278   2.578   3.903   2.665  0.0189 -0.7488  0.0275
    1R01  A1887 6279   2.612   3.933   2.567 -0.2723 -2.0541  2.3017
    1R01  A1888 6280   3.321   2.402   0.496  0.3711  1.0814  0.5120
    1R01  A1889 6281   3.384   2.469   0.435 -0.5675 -2.4046  1.2970
    1R01  A188a 6282   3.218   2.410   0.450  0.9539 -0.7069  1.5873
    1R01  A188b 6283   3.356   2.305   0.471 -2.4091  3.2680 -1.1755
    1R01  A188c 6284   3.304   2.433   0.653 -0.1441 -0.5510 -0.1321
    1R01  A188d 6285   3.188   2.346   0.713 -0.4099  0.9550 -0.2829
    1R01  A188e 6286   3.216   2.242   0.691  0.4599  1.3841  0.0064
    1R01  A188f 6287   3.089   2.370   0.674  1.2936 -2.1396 -1.1901
    1R01  A1890 6288   3.196   2.359   0.819 -0.4566 -0.1137 -1.3641
    1R01  A1891 6289   3.272   2.575   0.685  0.1816 -0.5722  0.0401
    1R01  A1892 6290   3.367   2.628   0.771  0.8531  0.4287 -0.0300
    1R01  A1893 6291   3.349   2.761   0.819  0.5702  0.6346  0.4305
    1R01  A1894 6292   3.413   2.790   0.897  0.1782 -2.8011  2.6180
    1R01  A1895 6293   3.240   2.836   0.769 -0.7216  0.4460  0.6743
    1R01  A1896 6294   3.179   2.971   0.766  0.1161  0.5827 -0.2715
    1R01  A1897 6295   3.248   3.037   0.721 -1.0259 -0.1616  2.8926
    1R01  A1898 6296   3.058   2.905   0.680  0.4409 -0.3195 -0.4057
    1R01  A1899 6297   3.052   2.943   0.580 -1.1164 -0.8167 -0.5478
    1R01  A189a 6298   2.926   2.932   0.766  0.4981 -0.1466  0.8672
    1R01  A189b 6299   2.837   2.871   0.750 -0.3737 -1.9146  0.8028
    1R01  A189c 6300   2.904   3.087   0.740 -0.2107  0.5760 -0.0572
    1R01  A189d 6301   2.893   3.118   0.631 -1.7605  3.7778 -2.6129
    1R01  A189e 6302   3.025   3.157   0.805  0.1692 -0.7072 -0.3535
    1R01  A189f 6303   3.087   3.210   0.732 -1.2892 -0.7786 -0.2551
    1R01  A18a0 6304   3.108   3.037   0.886  0.2859  0.7579  0.1000
    1R01  A18a1 6305   3.162   3.049   0.978  0.5394 -0.3663  1.5099
    1R01  A18a2 6306   2.990   2.936   0.907  0.5312  0.2385 -0.4231
    1R01  A18a3 6307   2.921   2.973   0.986 -1.7032  2.2324 -0.2049
    1R01  A18a4 6308   3.033   2.842   0.946 -0.7130 -2.9235  3.1347
    1R01  A18a5 6309   3.140   2.778   0.696 -0.1565  0.2108  0.0056
    1R01  A18a6 6310   3.154   2.649   0.641 -0.5305 -0.4877  0.8315
    1R01  A18a7 6311   3.088   2.610   0.567  2.2350 -2.0652 -1.8831
    1R01  A18a8 6312   3.471   2.526   0.800 -0.7010  0.1111 -0.3757
    1R01  A18a9 6313   3.437   2.405   0.731 -0.2070 -0.2629 -0.1031
    1R01  A18aa 6314   3.512   2.285   0.748  0.3509 -0.2909 -0.5789
    1R01  A18ab 6315   3.493   2.194   0.695  0.6896 -0.3530  0.1041
    1R01  A18ac 6316   3.620   2.297   0.837 -0.1771 -0.0622  0.0290
    1R01  A18ad 6317   3.724   2.208   0.892 -0.2345 -0.2214  0.3852
    1R01  A18ae 6318   3.668   2.125   0.940  0.3277  1.7048  0.5134
    1R01  A18af 6319   3.761   2.327   0.993 -0.7391  0.4098  0.0314
    1R01  A18b0 6320   3.727   2.294   1.089  2.1030 -0.1899  2.1126
    1R01  A18b1 6321   3.927   2.323   0.996  0.2271 -0.2530 -0.5024
    1R01  A18b2 6322   3.979   2.359   1.081  1.4587 -1.4139 -3.1265
    1R01  A18b3 6323   3.979   2.377   0.861 -0.2742  0.1549  0.2829
    1R01  A18b4 6324   4.088   2.380   0.858 -1.3973 -1.2389  2.4921
    1R01  A18b5 6325   3.925   2.491   0.770 -0.2035 -0.1603 -0.5727
    1R01  A18b6 6326   3.858   2.404   0.683 -0.9287 -0.0631  0.4376
    1R01  A18b7 6327   3.792   2.448   0.562 -0.1986  0.1585 -0.8227
    1R01  A18b8 6328   3.740   2.349   0.465  0.7795  0.2192 -0.2847
    1R01  A18b9 6329   3.740   2.244   0.505 -0.7096  0.5570 -1.1324
    1R01  A18ba 6330   3.798   2.352   0.374 -0.2674 -1.2344 -0.4635
    1R01  A18bb 6331   3.631   2.375   0.451  1.9054  0.3840 -0.2903
    1R01  A18bc 6332   3.788   2.587   0.556 -0.3401  0.0432 -0.6771
    1R01  A18bd 6333   3.861   2.670   0.635  0.4947  1.0774  0.0956
    1R01  A18be 6334   3.940   2.625   0.748 -0.0766 -0.3759  0.2296
    1R01  A18bf 6335   4.019   2.713   0.836 -0.2857 -0.6954 -0.6106
    1R01  A18c0 6336   4.009   2.823   0.825 -3.2434 -0.7668 -1.1315
    1R01  A18c1 6337   3.999   2.687   0.940 -1.1405 -0.1816 -1.4594
    1R01  A18c2 6338   4.131   2.691   0.817  1.0586 -1.5210  1.0299
    1R01  A18c3 6339   3.914   2.277   0.748  0.1010  0.0485 -0.6567
    1R01  A18c4 6340   4.003   2.237   0.691  2.1042  1.4979 -0.2008
    1R01  A18c5 6341   3.854   2.154   0.829  0.9001 -0.2899  0.5639
    1R01  A18c6 6342   3.852   2.060   0.774 -0.8074  0.7198 -1.4031
    1R01  A18c7 6343   3.938   2.164   0.960  0.0083  0.2839 -0.0018
    1R01  A18c8 6344   3.903   2.098   1.039 -1.5937 -0.6819  1.9801
    1R01  A18c9 6345   4.048   2.148   0.948 -0.8361 -1.0656 -1.5629
    1R01  A18ca 6346   3.654   2.405   0.911  0.4978 -0.0044 -1.0167
    1R01  A18cb 6347   3.586   2.527   0.896  0.5115  0.2311  1.0938
    1R01  A18cc 6348   3.601   2.612   0.962 -1.2601 -1.7742 -0.9994
    1R01  A18cd 6349   3.643   2.511  -0.899 -0.0692 -0.1723 -0.0370
    1R01  A18ce 6350   3.635   2.487  -0.792  1.0543  2.4973 -1.6151
    1R01  A18cf 6351   3.630   2.617  -0.905 -2.2916 -0.2663  1.2450
    1R01  A18d0 6352   3.566   2.458  -0.955  0.5284 -2.2864 -0.5175
    1R01  A18d1 6353   3.783   2.464  -0.944 -0.2398 -0.8028  1.1371
    1R01  A18d2 6354   3.788   2.314  -0.939 -0.2632  0.2422  0.1899
    1R01  A18d3 6355   3.710   2.266  -1.001  2.1431  0.4974  1.6515
    1R01  A18d4 6356   3.778   2.298  -0.831 -0.6456 -0.6311  0.6594
    1R01  A18d5 6357   3.885   2.279  -0.971  2.4409  3.9383 -0.5968
    1R01  A18d6 6358   3.902   2.515  -0.856  0.4699  1.0809 -0.2956
    1R01  A18d7 6359   3.998   2.564  -0.953 -0.2224 -0.4507  0.0316
    1R01  A18d8 6360   4.130   2.608  -0.901  0.5368  0.3027 -0.2212
    1R01  A18d9 6361   4.214   2.651  -0.956  0.6509 -0.6072 -2.3889
    1R01  A18da 6362   4.144   2.602  -0.757 -0.3905  0.5797 -0.3680
    1R01  A18db 6363   4.247   2.622  -0.646  0.4977  0.0826 -0.5095
    1R01  A18dc 6364   4.287   2.720  -0.641  0.5111 -0.3446  0.7798
    1R01  A18dd 6365   4.124   2.604  -0.548  0.4597 -0.6694 -0.4414
    1R01  A18de 6366   4.094   2.694  -0.495  0.3891  2.0657 -1.8235
    1R01  A18df 6367   4.171   2.504  -0.434 -0.1990 -0.4187 -0.5511
    1R01  A18e0 6368   4.102   2.465  -0.364  0.4355  0.1839 -1.8846
    1R01  A18e1 6369   4.286   2.585  -0.373 -0.2673  0.9443 -0.2691
    1R01  A18e2 6370   4.253   2.682  -0.336 -0.6278 -2.1530  2.3384
    1R01  A18e3 6371   4.411   2.585  -0.481 -0.2500  0.0313 -0.0735
    1R01  A18e4 6372   4.446   2.685  -0.507  3.0404 -0.5009 -0.8982
    1R01  A18e5 6373   4.359   2.517  -0.605 -0.1294  0.1355  0.2595
    1R01  A18e6 6374   4.426   2.491  -0.695  1.1850  0.9615 -0.8685
    1R01  A18e7 6375   4.260   2.414  -0.534  0.9338 -0.6728 -0.2739
    1R01  A18e8 6376   4.314   2.337  -0.482 -1.6164  2.0289  1.1097
    1R01  A18e9 6377   4.201   2.355  -0.606  1.4876  0.2779 -0.7686
    1R01  A18ea 6378   4.038   2.572  -0.675 -0.2654  0.8471  0.2990
    1R01  A18eb 6379   3.916   2.516  -0.718 -0.3025  0.3048 -0.3290
    1R01  A18ec 6380   3.841   2.477  -0.647 -0.9912  2.4261  1.5300
    1R01  A18ed 6381   3.939   2.572  -1.084  0.4906  0.1267  0.3054
    1R01  A18ee 6382   3.810   2.516  -1.087  0.2262 -0.1959 -0.1062
    1R01  A18ef 6383   3.747   2.480  -1.216 -0.0873 -0.3203 -0.0604
    1R01  A18f0 6384   3.653   2.422  -1.208  1.9129 -0.6343  1.5059
    1R01  A18f1 6385   3.806   2.528  -1.330 -0.2989 -0.5480 -0.2155
    1R01  A18f2 6386   3.786   2.528  -1.488 -0.0910  0.5040 -0.3547
    1R01  A18f3 6387   3.788   2.413  -1.521  1.9660 -1.5934 -0.4261
    1R01  A18f4 6388   3.917   2.620  -1.482 -0.6206 -0.5350 -0.6248
    1R01  A18f5 6389   4.012   2.582  -1.527  0.2210 -1.5872 -0.3573
    1R01  A18f6 6390   3.881   2.757  -1.562 -0.4999 -0.2804 -0.3088
    1R01  A18f7 6391   3.956   2.827  -1.597 -0.9239 -0.7306  0.2620
    1R01  A18f8 6392   3.769   2.824  -1.470 -0.2008 -0.2596  0.3615
    1R01  A18f9 6393   3.812   2.847  -1.374 -0.7826 -0.8515  0.2368
    1R01  A18fa 6394   3.666   2.932  -1.515  0.2153 -0.1555 -0.0055
    1R01  A18fb 6395   3.557   2.843  -1.511  0.7560 -1.0303  0.0921
    1R01  A18fc 6396   3.425   2.877  -1.541  0.5915  0.3219 -0.0378
    1R01  A18fd 6397   3.317   2.778  -1.583  0.2670  0.0335  0.3543
    1R01  A18fe 6398   3.324   2.772  -1.694  2.1581  0.6091 -1.8471
    1R01  A18ff 6399   3.335   2.676  -1.544 -1.3576  0.3734  1.0526
    1R01  A1900 6400   3.210   2.804  -1.563 -0.8803 -2.3787 -0.9394
    1R01  A1901 6401   3.413   3.009  -1.588  0.0488  0.2103  0.1220
    1R01  A1902 6402   3.518   3.103  -1.577 -0.5617  0.5338 -0.0992
    1R01  A1903 6403   3.657   3.065  -1.557 -0.0644 -0.1359 -0.3674
    1R01  A1904 6404   3.775   3.160  -1.568 -0.3069  0.2654 -0.1236
    1R01  A1905 6405   3.860   3.126  -1.507 -0.9549 -0.8531 -1.7110
    1R01  A1906 6406   3.749   3.258  -1.531  2.2369 -2.1592 -2.7931
    1R01  A1907 6407   3.802   3.174  -1.669 -0.9120 -2.9701  1.4764
    1R01  A1908 6408   3.645   2.719  -1.475 -0.5075  0.1006  0.2368
    1R01  A1909 6409   3.618   2.673  -1.378 -2.5337 -0.0305  0.2362
    1R01  A190a 6410   3.688   2.607  -1.574  0.0414  0.2021  0.2242
    1R01  A190b 6411   3.599   2.555  -1.619 -0.5867  0.6594 -0.0718
    1R01  A190c 6412   3.780   2.686  -1.672 -0.4403 -0.0442 -0.1567
    1R01  A190d 6413   3.826   2.626  -1.741 -0.1113 -0.0509  0.5726
    1R01  A190e 6414   3.717   2.763  -1.723  2.4451 -0.2422 -2.4841
    1R01  A190f 6415   3.914   2.604  -1.333 -0.7234  0.2480 -0.6560
    1R01  A1910 6416   3.989   2.627  -1.214  0.1327 -0.2491 -0.5938
    1R01  A1911 6417   4.085   2.685  -1.213  0.5508 -1.6397  1.6130
    1R01  A1912 6418  -2.938  -1.782  -3.591  0.4233 -0.2875  0.0420
    1R01  A1913 6419  -3.011  -1.822  -3.523 -0.9182  0.0076 -0.9478
    1R01  A1914 6420  -2.984  -1.756  -3.683  0.2232  2.5789  1.9404
    1R01  A1915 6421  -2.864  -1.865  -3.608  1.8943 -0.0672 -0.5568
    1R01  A1916 6422  -2.867  -1.653  -3.534  0.6179  0.6020 -0.9327
    1R01  A1917 6423  -2.963  -1.525  -3.522 -0.1695  0.3000 -0.5187
    1R01  A1918 6424  -3.013  -1.535  -3.425 -2.6767  1.8751 -1.4290
    1R01  A1919 6425  -3.042  -1.521  -3.598 -2.3609  1.0914 -0.8135
    1R01  A191a 6426  -2.910  -1.432  -3.530  1.2821 -0.3151 -1.3380
    1R01  A191b 6427  -2.746  -1.622  -3.629  0.2311 -0.0202  0.0090
    1R01  A191c 6428  -2.631  -1.629  -3.550 -0.3399 -0.5522 -0.5823
    1R01  A191d 6429  -2.506  -1.577  -3.600  0.2355  0.3298 -0.3294
    1R01  A191e 6430  -2.423  -1.562  -3.530  0.3085  0.2834 -1.4978
    1R01  A191f 6431  -2.512  -1.513  -3.727 -0.4627  0.2234 -0.3586
    1R01  A1920 6432  -2.458  -1.390  -3.793 -0.2313  0.0275 -0.5535
    1R01  A1921 6433  -2.364  -1.417  -3.841  2.4736 -0.5668 -0.0961
    1R01  A1922 6434  -2.594  -1.395  -3.877 -0.0018  1.1623  0.4575
    1R01  A1923 6435  -2.569  -1.420  -3.986  0.2965  0.3449 -0.2179
    1R01  A1924 6436  -2.669  -1.258  -3.862  0.2565 -0.4235 -0.0128
    1R01  A1925 6437  -2.774  -1.246  -3.879 -0.8543  1.9848  0.8051
    1R01  A1926 6438  -2.565  -1.160  -3.929 -0.2838 -0.0146  0.6400
    1R01  A1927 6439  -2.544  -1.185  -4.029 -2.6598  0.0307  1.0747
    1R01  A1928 6440  -2.428  -1.158  -3.846  0.3265 -0.4051  0.2633
    1R01  A1929 6441  -2.339  -1.177  -3.904 -0.1694  0.2971 -3.8281
    1R01  A192a 6442  -2.459  -1.249  -3.727 -0.1124 -0.4691  0.2882
    1R01  A192b 6443  -2.401  -1.234  -3.634 -1.2178 -0.6168  1.9550
    1R01  A192c 6444  -2.616  -1.226  -3.712 -0.9811 -1.2190  0.2449
    1R01  A192d 6445  -2.658  -1.302  -3.648  1.6518 -1.3784 -3.9964
    1R01  A192e 6446  -2.650  -1.131  -3.677  0.0933 -0.0957 -0.7409
    1R01  A192f 6447  -2.632  -1.516  -3.801 -0.0637 -0.0756 -0.3563
    1R01  A1930 6448  -2.751  -1.562  -3.759 -0.3487 -0.3254  0.0830
    1R01  A1931 6449  -2.847  -1.524  -3.801  0.5974 -0.6708  0.7191
    1R01  A1932 6450  -2.660  -1.672  -3.412 -0.0584 -0.3157 -0.5558
    1R01  A1933 6451  -2.802  -1.679  -3.394 -0.3174  0.8426  0.3788
    1R01  A1934 6452  -2.856  -1.709  -3.270  0.5255 -0.0430  0.5691
    1R01  A1935 6453  -2.961  -1.728  -3.257  2.9255 -0.4030  0.5610
    1R01  A1936 6454  -2.768  -1.725  -3.171  0.3348  0.3947 -0.3739
    1R01  A1937 6455  -2.759  -1.773  -3.028 -0.0728  0.4114 -0.4914
    1R01  A1938 6456  -2.812  -1.708  -2.964  0.7020 -0.0918 -1.1218
    1R01  A1939 6457  -2.604  -1.762  -3.038  0.5855 -0.4445  0.2460
    1R01  A193a 6458  -2.569  -1.682  -2.974 -0.0643 -0.1057  1.1885
    1R01  A193b 6459  -2.543  -1.902  -2.991  0.1588 -0.8632  0.2624
    1R01  A193c 6460  -2.444  -1.912  -2.952  0.8927 -0.6306  2.5574
    1R01  A193d 6461  -2.581  -2.017  -3.094 -0.0742 -0.0684 -0.1206
    1R01  A193e 6462  -2.528  -2.098  -3.053  0.2900  2.7893  0.4259
    1R01  A193f 6463  -2.597  -2.024  -3.241 -0.4502  0.3645  0.9734
    1R01  A1940 6464  -2.734  -2.016  -3.248  0.3821  0.6755 -0.1817
    1R01  A1941 6465  -2.803  -2.079  -3.350  0.0004 -0.4057  0.0676
    1R01  A1942 6466  -2.949  -2.112  -3.350  0.0292  0.4550 -0.1367
    1R01  A1943 6467  -2.962  -2.224  -3.339  3.9032 -1.5834 -1.3768
    1R01  A1944 6468  -3.000  -2.062  -3.268  1.6928 -1.7573 -0.3941
    1R01  A1945 6469  -2.984  -2.093  -3.450 -0.9057  1.7611  0.0586
    1R01  A1946 6470  -2.727  -2.096  -3.467 -0.2607  0.0453  0.4037
    1R01  A1947 6471  -2.584  -2.089  -3.457 -0.9329  0.9702 -0.5605
    1R01  A1948 6472  -2.507  -2.063  -3.342  0.5771  0.6599  1.0178
    1R01  A1949 6473  -2.360  -2.093  -3.337 -0.6608 -0.0848 -0.1638
    1R01  A194a 6474  -2.304  -2.089  -3.434  1.7231 -1.6631 -1.0481
    1R01  A194b 6475  -2.343  -2.195  -3.288  0.5815 -0.9581 -1.6859
    1R01  A194c 6476  -2.311  -2.011  -3.278  1.3480 -1.6296 -0.6875
    1R01  A194d 6477  -2.737  -2.020  -3.093  0.5238 -0.1890 -0.6274
    1R01  A194e 6478  -2.793  -2.113  -3.065  0.8657 -0.8523  2.7071
    1R01  A194f 6479  -2.780  -1.917  -2.982 -0.6167 -0.0641 -0.4734
    1R01  A1950 6480  -2.876  -1.940  -2.923 -0.7610 -1.8446 -0.8931
    1R01  A1951 6481  -2.657  -1.927  -2.880  0.1851 -0.5307  0.8513
    1R01  A1952 6482  -2.659  -1.852  -2.799  2.4276  0.0451  0.2560
    1R01  A1953 6483  -2.654  -2.023  -2.832  2.6396  1.0011  1.9362
    1R01  A1954 6484  -2.634  -1.721  -3.188  0.5866 -0.5772 -0.0099
    1R01  A1955 6485  -2.574  -1.704  -3.308 -0.4104 -0.4496  0.0364
    1R01  A1956 6486  -2.469  -1.720  -3.318 -0.4190 -1.7503 -0.4354
    1R01  A1957 6487  -5.901   0.602  -4.796 -0.2791  0.4123 -0.2249
    1R01  A1958 6488  -5.876   0.636  -4.692  2.0726  2.6394 -0.3109
    1R01  A1959 6489  -6.005   0.614  -4.816  2.3217 -1.9750 -0.9768
    1R01  A195a 6490  -5.889   0.497  -4.794 -2.0471 -0.4036  2.0257
    1R01  A195b 6491  -5.806   0.674  -4.899 -0.3436 -0.0115 -0.2071
    1R01  A195c 6492  -5.863   0.646  -5.041 -0.5114  0.8647 -0.3781
    1R01  A195d 6493  -5.956   0.702  -5.074  1.4631  4.5547 -2.1015
    1R01  A195e 6494  -5.792   0.678  -5.110 -2.3272  2.1754  0.4805
    1R01  A195f 6495  -5.883   0.540  -5.055  1.1473  1.2263 -1.5374
    1R01  A1960 6496  -5.648   0.642  -4.892 -0.3689  0.2342 -0.3924
    1R01  A1961 6497  -5.585   0.767  -4.885 -0.6988 -0.1403  0.7674
    1R01  A1962 6498  -5.447   0.778  -4.903 -1.0217 -0.6421 -0.3042
    1R01  A1963 6499  -5.384   0.868  -4.896 -0.3591  0.7122  1.3808
    1R01  A1964 6500  -5.384   0.654  -4.928  0.9213  0.7289  0.3611
    1R01  A1965 6501  -5.253   0.583  -4.977  0.4735 -0.0623 -0.4595
    1R01  A1966 6502  -5.169   0.612  -4.910 -0.2862 -0.3426  1.9632
    1R01  A1967 6503  -5.329   0.448  -4.948  0.4621  0.2508  0.6288
    1R01  A1968 6504  -5.297   0.393  -4.858  1.1566 -1.3410  1.8925
    1R01  A1969 6505  -5.314   0.357  -5.082 -0.3588  1.2334  0.9703
    1R01  A196a 6506  -5.385   0.274  -5.093 -0.0556  2.2287 -0.8642
    1R01  A196b 6507  -5.158   0.318  -5.070 -0.0354 -0.1583 -0.1857
    1R01  A196c 6508  -5.141   0.266  -4.975  2.5441 -0.1612 -0.8276
    1R01  A196d 6509  -5.082   0.456  -5.102  0.6414  0.3998  0.1724
    1R01  A196e 6510  -5.025   0.485  -5.016  1.7219 -0.9179  1.9460
    1R01  A196f 6511  -5.193   0.558  -5.130 -0.3191 -0.7129  0.1764
    1R01  A1970 6512  -5.172   0.649  -5.189  0.1796 -0.5959  0.8503
    1R01  A1971 6513  -5.303   0.467  -5.198  0.1663  0.1286 -0.0694
    1R01  A1972 6514  -5.264   0.423  -5.295  2.2369 -3.5267  0.1132
    1R01  A1973 6515  -5.391   0.524  -5.217 -0.6091 -1.8043  0.3164
    1R01  A1974 6516  -5.449   0.535  -4.910 -0.5204 -0.1448  0.6158
    1R01  A1975 6517  -5.586   0.518  -4.913 -0.0366  0.3591  0.1999
    1R01  A1976 6518  -5.638   0.421  -4.921 -1.8532  2.3422 -0.8752
    1R01  A1977 6519  -5.684   0.877  -4.873  0.1967  0.1764  0.9220
    1R01  A1978 6520  -5.816   0.826  -4.876 -0.5483 -0.2454  0.2975
    1R01  A1979 6521  -5.931   0.899  -4.878  0.0228 -0.5137  0.9314
    1R01  A197a 6522  -6.025   0.851  -4.888  0.8321  1.4797 -2.5683
    1R01  A197b 6523  -5.907   1.038  -4.857 -0.7567 -0.1986 -0.2933
    1R01  A197c 6524  -5.973   1.176  -4.845  0.1767  0.6197 -0.3404
    1R01  A197d 6525  -6.015   1.219  -4.931  1.7793 -1.2797  0.8427
    1R01  A197e 6526  -5.824   1.235  -4.832  0.7361  0.7125 -0.0702
    1R01  A197f 6527  -5.803   1.301  -4.912 -1.0413 -1.9715  0.4115
    1R01  A1980 6528  -5.827   1.328  -4.706 -0.4063 -0.3913 -0.7241
    1R01  A1981 6529  -5.758   1.406  -4.697  0.0182 -1.5968  0.9706
    1R01  A1982 6530  -5.838   1.233  -4.576  0.2848 -0.1612 -0.0005
    1R01  A1983 6531  -5.838   1.291  -4.485 -1.0671 -1.7037 -2.5700
    1R01  A1984 6532  -5.776   1.100  -4.553 -0.6478 -0.2091 -0.0358
    1R01  A1985 6533  -5.894   1.035  -4.568  0.6369 -0.2998 -0.0753
    1R01  A1986 6534  -5.916   0.898  -4.549 -0.9007 -1.1753 -0.9989
    1R01  A1987 6535  -6.041   0.830  -4.540  0.1955  0.7035  0.3698
    1R01  A1988 6536  -6.094   0.875  -4.460 -1.2630  0.7430 -0.2939
    1R01  A1989 6537  -6.025   0.725  -4.514 -0.1182 -0.2973 -3.1564
    1R01  A198a 6538  -6.100   0.839  -4.637 -0.4286  0.5750 -0.0136
    1R01  A198b 6539  -5.803   0.831  -4.500  0.3447 -0.3645 -0.3609
    1R01  A198c 6540  -5.677   0.896  -4.488 -0.2286 -0.3672  0.5781
    1R01  A198d 6541  -5.662   1.033  -4.504  0.3965 -0.1065 -0.4887
    1R01  A198e 6542  -5.528   1.092  -4.468  1.0130  0.5301 -0.9453
    1R01  A198f 6543  -5.465   1.063  -4.552  0.8245 -2.4742 -0.6706
    1R01  A1990 6544  -5.538   1.198  -4.464 -0.1354 -1.1463 -0.2554
    1R01  A1991 6545  -5.490   1.044  -4.374 -1.2333 -0.8886 -2.7100
    1R01  A1992 6546  -5.978   1.165  -4.594  0.6067  0.1908 -0.3406
    1R01  A1993 6547  -6.041   1.186  -4.509  0.5885 -1.2584  1.3725
    1R01  A1994 6548  -6.049   1.222  -4.723  0.6089 -0.8682 -0.2581
    1R01  A1995 6549  -6.156   1.224  -4.727 -0.1250  0.4852 -2.4884
    1R01  A1996 6550  -5.980   1.363  -4.718  0.6511  0.1993 -0.4255
    1R01  A1997 6551  -6.021   1.431  -4.637  0.8304 -0.7835  0.4650
    1R01  A1998 6552  -6.006   1.426  -4.807 -1.2164  0.7791 -1.1226
    1R01  A1999 6553  -5.781   1.089  -4.849  0.6947 -0.1491  0.4407
    1R01  A199a 6554  -5.666   1.018  -4.879  0.0525 -0.2580  0.1338
    1R01  A199b 6555  -5.584   1.086  -4.889 -0.0831 -0.4281 -1.2051
    1R01  A199c 6556   5.061   0.720   4.024  0.9343 -0.6987 -0.0668
    1R01  A199d 6557   5.024   0.629   3.973 -2.1237 -0.5062 -3.7482
    1R01  A199e 6558   5.010   0.803   3.988 -1.2290 -1.6978  1.1657
    1R01  A199f 6559   5.034   0.717   4.127 -1.1707  0.7653 -0.7769
    1R01  A19a0 6560   5.210   0.739   3.997 -1.0372 -0.3895 -0.3955
    1R01  A19a1 6561   5.270   0.838   4.093  0.1294 -0.3645 -0.3050
    1R01  A19a2 6562   5.217   0.930   4.073  2.8952 -1.3136  0.6279
    1R01  A19a3 6563   5.256   0.826   4.198 -1.4891 -0.1781  0.5578
    1R01  A19a4 6564   5.374   0.860   4.072 -0.9182 -2.3585  2.6849
    1R01  A19a5 6565   5.241   0.784   3.850  0.0858  0.0214  0.4113
    1R01  A19a6 6566   5.332   0.689   3.795  0.2864  0.2903  0.5721
    1R01  A19a7 6567   5.380   0.702   3.660  0.0969 -0.0480  0.1050
    1R01  A19a8 6568   5.440   0.622   3.612  2.0793 -0.6831 -0.6075
    1R01  A19a9 6569   5.343   0.823   3.603 -0.7186  0.1838 -0.3261
    1R01  A19aa 6570   5.341   0.870   3.463 -0.3220 -0.0140  0.2264
    1R01  A19ab 6571   5.293   0.801   3.398  2.5675  1.3036 -1.1905
    1R01  A19ac 6572   5.246   0.978   3.513 -0.9088 -0.3837 -0.7458
    1R01  A19ad 6573   5.147   0.975   3.474 -0.7186  1.1385  1.4995
    1R01  A19ae 6574   5.312   1.116   3.467 -0.6418  0.4976 -0.3423
    1R01  A19af 6575   5.284   1.212   3.515 -2.3923 -1.0327  0.9211
    1R01  A19b0 6576   5.296   1.117   3.313 -0.1493  0.1378 -0.0231
    1R01  A19b1 6577   5.325   1.213   3.272  1.7794  0.7328  0.4031
    1R01  A19b2 6578   5.386   1.003   3.261 -0.1175 -0.0901 -0.3704
    1R01  A19b3 6579   5.459   1.052   3.191 -0.9592  1.3497  2.2365
    1R01  A19b4 6580   5.458   0.945   3.394  0.0891 -0.0146 -0.1625
    1R01  A19b5 6581   5.553   0.887   3.381  2.4223 -4.2137  3.9883
    1R01  A19b6 6582   5.459   1.075   3.475  0.3738  0.0564 -0.3242
    1R01  A19b7 6583   5.494   1.067   3.578 -0.4461 -0.5747 -1.9920
    1R01  A19b8 6584   5.512   1.152   3.421 -1.5448 -1.1488  0.6944
    1R01  A19b9 6585   5.251   0.903   3.653  0.0085 -0.3423  0.3636
    1R01  A19ba 6586   5.189   0.892   3.774  0.1324  0.3188  0.3210
    1R01  A19bb 6587   5.111   0.959   3.804 -2.7657 -1.5027 -3.4871
    1R01  A19bc 6588   5.359   0.574   3.884 -0.0726  0.4586  0.0919
    1R01  A19bd 6589   5.288   0.594   4.004 -1.4914 -0.1394 -0.6311
    1R01  A19be 6590   5.299   0.498   4.112 -0.4666 -0.1137  0.1530
    1R01  A19bf 6591   5.246   0.504   4.211 -2.0158 -1.8084 -0.5344
    1R01  A19c0 6592   5.394   0.395   4.082 -0.0939 -0.2491  0.8825
    1R01  A19c1 6593   5.447   0.264   4.138  0.9568  0.5621  0.5110
    1R01  A19c2 6594   5.491   0.287   4.227 -0.9345  2.5352  1.2895
    1R01  A19c3 6595   5.544   0.262   4.017 -0.2209  0.9969 -0.3402
    1R01  A19c4 6596   5.637   0.292   4.053 -1.0016 -0.2412 -1.3712
    1R01  A19c5 6597   5.553   0.110   3.966  0.2979 -0.0429 -0.0447
    1R01  A19c6 6598   5.646   0.071   3.931 -0.4969 -0.0655 -0.7038
    1R01  A19c7 6599   5.423   0.082   3.895  0.1489  0.4301  0.5499
    1R01  A19c8 6600   5.428  -0.018   3.849  2.3548 -0.4329 -3.0270
    1R01  A19c9 6601   5.339   0.175   3.816  0.6527  0.5248 -0.9040
    1R01  A19ca 6602   5.239   0.185   3.914  0.6277 -0.3540 -0.0890
    1R01  A19cb 6603   5.129   0.276   3.897  0.1493  0.3957  0.6399
    1R01  A19cc 6604   5.004   0.279   3.974  0.2249  0.8932  0.9716
    1R01  A19cd 6605   4.923   0.240   3.915 -0.6631 -3.9148  0.4880
    1R01  A19ce 6606   5.019   0.211   4.071  1.4791  0.5525  2.1752
    1R01  A19cf 6607   4.977   0.375   4.013 -1.1796  0.8772  0.1035
    1R01  A19d0 6608   5.139   0.350   3.778  0.6536  0.0814  0.0505
    1R01  A19d1 6609   5.240   0.331   3.684  0.0511 -0.1948 -0.5930
    1R01  A19d2 6610   5.346   0.239   3.690  0.1031 -0.7186  0.6615
    1R01  A19d3 6611   5.452   0.227   3.590 -0.3361  0.5409 -0.4808
    1R01  A19d4 6612   5.443   0.148   3.517  0.8408  0.2609  1.2270
    1R01  A19d5 6613   5.460   0.315   3.527  0.8976 -1.5042 -2.2568
    1R01  A19d6 6614   5.542   0.216   3.650 -1.9937 -1.7166 -1.2027
    1R01  A19d7 6615   5.313   0.090   4.009 -0.1087  0.3109  0.5530
    1R01  A19d8 6616   5.261  -0.008   4.010  1.0660  1.2562  1.2233
    1R01  A19d9 6617   5.390   0.118   4.145  0.8009  0.7211  0.2567
    1R01  A19da 6618   5.337   0.093   4.238  0.9291  1.1890  0.0160
    1R01  A19db 6619   5.518   0.048   4.107  0.4300 -0.4469 -0.1156
    1R01  A19dc 6620   5.509  -0.060   4.105 -0.2777 -1.0652 -0.6565
    1R01  A19dd 6621   5.596   0.074   4.174  0.5347  0.8379 -0.9173
    1R01  A19de 6622   5.475   0.394   3.974 -0.1384  0.6894  0.4519
    1R01  A19df 6623   5.463   0.475   3.861 -0.5355  0.2467 -0.0021
    1R01  A19e0 6624   5.513   0.471   3.768  1.3348  1.2287 -2.2271
    1R01  A19e1 6625   3.701   1.958   0.352 -0.1577  0.2886 -0.4175
    1R01  A19e2 6626   3.804   1.963   0.394  0.5848 -1.5757 -2.9976
    1R01  A19e3 6627   3.711   1.948   0.251 -1.8005  0.0155  1.2836
    1R01  A19e4 6628   3.660   2.056   0.366 -0.1655  0.4306 -0.5199
    1R01  A19e5 6629   3.624   1.829   0.387 -0.2490 -0.0841 -0.1275
    1R01  A19e6 6630   3.617   1.820   0.541  0.0791 -0.8224  0.5704
    1R01  A19e7 6631   3.550   1.742   0.579 -1.3016 -1.6350 -0.6429
    1R01  A19e8 6632   3.715   1.830   0.594 -1.1401 -1.0585  1.2894
    1R01  A19e9 6633   3.569   1.917   0.574  3.6192 -0.9726  1.7682
    1R01  A19ea 6634   3.709   1.709   0.341  0.4250  0.0301  0.7680
    1R01  A19eb 6635   3.646   1.664   0.223 -0.0363  0.3370 -0.1585
    1R01  A19ec 6636   3.711   1.568   0.138 -0.3194 -0.3718  0.5379
    1R01  A19ed 6637   3.664   1.514   0.058  1.5911 -0.0481  0.8979
    1R01  A19ee 6638   3.841   1.531   0.178  0.1826 -0.0705  0.6278
    1R01  A19ef 6639   3.923   1.404   0.186  0.5071 -0.0586 -0.9841
    1R01  A19f0 6640   3.981   1.398   0.089  0.9397 -1.3602  0.7259
    1R01  A19f1 6641   3.983   1.461   0.314 -0.1502  0.3705  0.1754
    1R01  A19f2 6642   4.093   1.473   0.302  1.3315  0.5320  0.3606
    1R01  A19f3 6643   3.950   1.354   0.426  0.9443  0.7450  0.3207
    1R01  A19f4 6644   3.948   1.387   0.529 -1.1944  1.2738 -0.8284
    1R01  A19f5 6645   4.031   1.215   0.384 -0.2689 -0.1351 -0.0804
    1R01  A19f6 6646   4.011   1.136   0.461 -0.5908 -0.0555 -0.6171
    1R01  A19f7 6647   3.965   1.168   0.249  0.0364 -0.5211  0.8409
    1R01  A19f8 6648   3.929   1.062   0.254 -0.5717  2.7808 -2.3151
    1R01  A19f9 6649   3.851   1.269   0.219  0.6329 -0.4912  0.1799
    1R01  A19fa 6650   3.767   1.236   0.164  0.8939 -2.7254 -2.1476
    1R01  A19fb 6651   3.814   1.299   0.370 -0.5268  0.1682  0.0080
    1R01  A19fc 6652   3.732   1.366   0.379 -0.2195 -0.7955 -0.8887
    1R01  A19fd 6653   3.774   1.213   0.432 -0.6988 -1.9292  1.3834
    1R01  A19fe 6654   3.895   1.583   0.290 -0.1271  0.2135 -0.1513
    1R01  A19ff 6655   3.832   1.661   0.383 -0.6825  0.6420  0.4228
    1R01  A1a00 6656   3.881   1.689   0.477 -0.1213 -1.5683  1.3981
    1R01  A1a01 6657   3.510   1.715   0.212  0.1874 -0.2975  0.1571
    1R01  A1a02 6658   3.493   1.813   0.315  0.1206 -0.1812 -0.0771
    1R01  A1a03 6659   3.370   1.878   0.342  0.2357 -0.3355 -0.2222
    1R01  A1a04 6660   3.361   1.948   0.426 -1.5383 -0.0706  0.5350
    1R01  A1a05 6661   3.268   1.835   0.258 -0.0125 -0.6844  0.2829
    1R01  A1a06 6662   3.131   1.869   0.221 -0.0246 -0.6046 -0.1528
    1R01  A1a07 6663   3.064   1.835   0.298  0.2923 -1.6288  1.1203
    1R01  A1a08 6664   3.148   1.765   0.103  0.8332 -0.4208  0.7461
    1R01  A1a09 6665   3.092   1.678   0.125 -0.0683  2.1567 -0.2325
    1R01  A1a0a 6666   3.078   1.832  -0.023 -0.0510 -0.0093 -0.1403
    1R01  A1a0b 6667   3.037   1.767  -0.101 -2.6266 -1.2847 -0.5536
    1R01  A1a0c 6668   3.175   1.946  -0.067  0.1131 -0.2220  0.2531
    1R01  A1a0d 6669   3.134   1.991  -0.161 -1.0666  1.4298  1.3595
    1R01  A1a0e 6670   3.327   1.943  -0.055  0.2231 -0.0463  0.4925
    1R01  A1a0f 6671   3.324   2.029   0.053 -0.0028  0.3886  0.2927
    1R01  A1a10 6672   3.433   2.114   0.089  0.0160 -0.1701  0.5527
    1R01  A1a11 6673   3.420   2.244   0.165 -0.7313 -0.0537 -0.5718
    1R01  A1a12 6674   3.396   2.332   0.094 -2.3040 -0.0093 -0.8100
    1R01  A1a13 6675   3.326   2.231   0.224 -0.0238 -0.6069 -3.9210
    1R01  A1a14 6676   3.503   2.257   0.234  0.7165 -2.2424  0.4703
    1R01  A1a15 6677   3.546   2.089   0.009 -0.8270 -0.1774 -0.9272
    1R01  A1a16 6678   3.543   2.008  -0.098  0.3275 -0.2329  0.6537
    1R01  A1a17 6679   3.432   1.947  -0.147  0.5199  0.4305  0.6012
    1R01  A1a18 6680   3.414   1.921  -0.305  0.5441 -0.2130  0.4235
    1R01  A1a19 6681   3.428   2.008  -0.365  3.4039 -0.7410  0.2638
    1R01  A1a1a 6682   3.314   1.874  -0.325 -0.7004 -0.7511  1.2930
    1R01  A1a1b 6683   3.482   1.846  -0.337  0.2829  0.7300  1.7639
    1R01  A1a1c 6684   3.172   2.041   0.053 -0.0629 -0.1512  0.1490
    1R01  A1a1d 6685   3.141   2.142   0.026  0.1482  0.1439  2.5290
    1R01  A1a1e 6686   3.068   1.991   0.159 -0.4234 -0.1531  0.2505
    1R01  A1a1f 6687   3.029   2.064   0.235 -0.8953  2.1789  0.4212
    1R01  A1a20 6688   2.968   1.919   0.060 -0.1885  0.5724  0.4100
    1R01  A1a21 6689   2.884   1.856   0.108 -0.0292 -1.2150 -0.3929
    1R01  A1a22 6690   2.907   1.988   0.001  2.0868 -1.8606  0.2420
    1R01  A1a23 6691   3.287   1.749   0.154  0.0187 -0.0072  0.1537
    1R01  A1a24 6692   3.406   1.679   0.125  0.2325 -0.7750 -0.1594
    1R01  A1a25 6693   3.416   1.611   0.040 -1.4111 -1.5783 -1.9533
    1R01  A1a26 6694   0.810   4.186  -3.347  0.4586  0.4033 -0.4613
    1R01  A1a27 6695   0.743   4.154  -3.433  1.9824  1.7485 -0.4862
    1R01  A1a28 6696   0.831   4.098  -3.282 -1.8815  0.0367 -1.6254
    1R01  A1a29 6697   0.740   4.246  -3.290  0.1239 -0.0064 -1.1993
    1R01  A1a2a 6698   0.941   4.260  -3.408 -0.6515  0.7653  0.4732
    1R01  A1a2b 6699   0.987   4.354  -3.292 -0.4197 -0.3715  0.4553
    1R01  A1a2c 6700   1.019   4.296  -3.205 -0.1055  2.2756 -3.7324
    1R01  A1a2d 6701   1.082   4.401  -3.322  1.3766 -1.0315  0.6281
    1R01  A1a2e 6702   0.910   4.419  -3.260  0.4053 -2.2769  0.1704
    1R01  A1a2f 6703   0.912   4.347  -3.535  0.3077  0.0735 -0.1855
    1R01  A1a30 6704   1.003   4.298  -3.638 -0.0869 -0.0967 -0.6716
    1R01  A1a31 6705   1.006   4.342  -3.775  0.1204  0.1024 -0.0806
    1R01  A1a32 6706   1.068   4.302  -3.849  0.4317  0.7461  0.6469
    1R01  A1a33 6707   0.905   4.435  -3.800 -0.0001  0.7261 -0.1452
    1R01  A1a34 6708   0.807   4.472  -3.913 -0.6516 -0.1454  0.6054
    1R01  A1a35 6709   0.764   4.391  -3.972 -1.8649  2.3253 -0.3121
    1R01  A1a36 6710   0.710   4.520  -3.792 -0.1826 -0.6962 -0.5439
    1R01  A1a37 6711   0.628   4.462  -3.769  0.3674 -0.9845 -2.0179
    1R01  A1a38 6712   0.673   4.666  -3.822 -0.3685 -0.5627 -0.2773
    1R01  A1a39 6713   0.634   4.719  -3.732 -0.6094 -0.7754  0.3591
    1R01  A1a3a 6714   0.588   4.647  -3.951  0.0792 -0.5183 -0.0730
    1R01  A1a3b 6715   0.508   4.571  -3.934 -2.4720  1.2103  0.9106
    1R01  A1a3c 6716   0.685   4.606  -4.076 -0.1229 -0.3145 -0.0885
    1R01  A1a3d 6717   0.657   4.515  -4.127  0.1960  0.0832 -0.7241
    1R01  A1a3e 6718   0.822   4.595  -4.004  0.0049  0.0503  0.2316
    1R01  A1a3f 6719   0.906   4.602  -4.071  0.2021  3.0594  0.2561
    1R01  A1a40 6720   0.800   4.714  -3.901  0.0967  0.1222 -0.7777
    1R01  A1a41 6721   0.786   4.810  -3.953  1.3902  0.4947  0.9859
    1R01  A1a42 6722   0.892   4.724  -3.835 -0.9513 -1.4078  2.1544
    1R01  A1a43 6723   0.823   4.481  -3.699  0.0959  0.5841  0.0284
    1R01  A1a44 6724   0.819   4.446  -3.559  0.3361 -0.1204  0.2702
    1R01  A1a45 6725   0.732   4.476  -3.497 -2.8502 -0.8810  1.4451
    1R01  A1a46 6726   1.089   4.199  -3.575  0.5836 -0.1020  0.1972
    1R01  A1a47 6727   1.053   4.162  -3.442  0.2799 -0.3347  0.6364
    1R01  A1a48 6728   1.123   4.070  -3.365 -0.2106 -0.1592  0.7511
    1R01  A1a49 6729   1.097   4.041  -3.264  0.3595 -2.6693  1.1362
    1R01  A1a4a 6730   1.227   4.008  -3.435 -0.2784 -0.2322  0.1007
    1R01  A1a4b 6731   1.327   3.896  -3.409  0.2994 -0.2812  0.6753
    1R01  A1a4c 6732   1.392   3.920  -3.328  2.0062 -2.7739  0.4440
    1R01  A1a4d 6733   1.370   3.918  -3.558 -0.3952 -0.1442 -0.0483
    1R01  A1a4e 6734   1.468   3.958  -3.563 -1.2635  1.0728 -1.7031
    1R01  A1a4f 6735   1.382   3.765  -3.620 -0.0717 -0.5775 -0.3530
    1R01  A1a50 6736   1.452   3.748  -3.702 -0.3838  0.7936 -0.4714
    1R01  A1a51 6737   1.226   3.739  -3.635  0.3839 -0.0700  0.6485
    1R01  A1a52 6738   1.177   3.813  -3.698  0.5549 -1.7912 -0.5070
    1R01  A1a53 6739   1.160   3.602  -3.657 -0.0877  0.8352  0.5216
    1R01  A1a54 6740   1.116   3.602  -3.526  0.6055 -1.0144 -0.0051
    1R01  A1a55 6741   1.018   3.516  -3.475  0.0188  0.3520  0.2799
    1R01  A1a56 6742   0.943   3.532  -3.346  0.0865  0.1687 -0.9986
    1R01  A1a57 6743   0.878   3.447  -3.323 -1.1700 -1.1100 -1.7138
    1R01  A1a58 6744   0.886   3.626  -3.345  1.5042  2.9726 -1.0797
    1R01  A1a59 6745   1.012   3.549  -3.258 -1.0056  1.2799  1.9757
    1R01  A1a5a 6746   0.964   3.433  -3.573  0.5019  0.4349  0.9684
    1R01  A1a5b 6747   1.004   3.442  -3.707  0.4492 -0.1238 -0.4616
    1R01  A1a5c 6748   1.106   3.520  -3.760 -0.2465  0.0258  0.5019
    1R01  A1a5d 6749   1.149   3.524  -3.906  0.1621  0.6185  0.6676
    1R01  A1a5e 6750   1.151   3.632  -3.932 -1.4826 -1.0818  2.0327
    1R01  A1a5f 6751   1.247   3.470  -3.905 -0.9014  0.0051 -0.2652
    1R01  A1a60 6752   1.074   3.477  -3.976  1.8055 -0.4913  0.7647
    1R01  A1a61 6753   1.169   3.733  -3.490 -0.4816 -0.3679  1.2729
    1R01  A1a62 6754   1.083   3.804  -3.471 -2.6965  0.9609 -0.4077
    1R01  A1a63 6755   1.283   3.753  -3.394  0.6529 -0.1837 -0.3852
    1R01  A1a64 6756   1.264   3.712  -3.292 -4.2363  0.4013  1.4507
    1R01  A1a65 6757   1.400   3.685  -3.482  0.5384 -0.4736 -0.5880
    1R01  A1a66 6758   1.402   3.578  -3.492  1.7708 -0.3806  0.4944
    1R01  A1a67 6759   1.496   3.706  -3.441 -0.9416  0.2350 -0.9160
    1R01  A1a68 6760   1.260   4.026  -3.562  0.3924  0.0329  0.1404
    1R01  A1a69 6761   1.198   4.128  -3.638 -0.0292  0.4519 -0.4688
    1R01  A1a6a 6762   1.229   4.140  -3.740 -0.4054 -0.7429 -0.4906
    1R01  A1a6b 6763   1.820   5.132   0.543  0.5230 -0.0656 -0.2714
    1R01  A1a6c 6764   1.813   5.170   0.435  0.2898 -2.0039 -1.3456
    1R01  A1a6d 6765   1.720   5.116   0.582 -1.0880  0.7191 -0.6208
    1R01  A1a6e 6766   1.876   5.035   0.545 -1.8574 -2.3623  1.1021
    1R01  A1a6f 6767   1.883   5.246   0.631  0.2736  0.1091  0.5712
    1R01  A1a70 6768   2.035   5.278   0.597  0.1301 -0.1288  0.5752
    1R01  A1a71 6769   2.039   5.310   0.491  0.7766 -0.6107  0.3908
    1R01  A1a72 6770   2.082   5.179   0.602 -0.0163 -2.4474 -0.2564
    1R01  A1a73 6771   2.086   5.354   0.657  1.7297  0.0613  1.4045
    1R01  A1a74 6772   1.875   5.211   0.787 -0.9999  0.3994 -0.3104
    1R01  A1a75 6773   1.775   5.302   0.838 -0.6564  0.3657  0.2489
    1R01  A1a76 6774   1.735   5.288   0.981  0.6268  0.1219  0.3751
    1R01  A1a77 6775   1.657   5.351   1.019  3.3983  1.4535  1.2027
    1R01  A1a78 6776   1.797   5.185   1.056  0.4870  1.0008  0.2406
    1R01  A1a79 6777   1.800   5.118   1.196  0.5574  0.4165  0.6114
    1R01  A1a7a 6778   1.716   5.051   1.224  2.5909  1.0337  0.1405
    1R01  A1a7b 6779   1.917   5.032   1.134 -0.1976  0.0662  0.1245
    1R01  A1a7c 6780   1.897   4.919   1.113  2.7241  1.2655  0.6305
    1R01  A1a7d 6781   2.033   5.053   1.229 -0.1637 -0.1434  0.0662
    1R01  A1a7e 6782   2.138   5.031   1.197  0.3202  0.8621  0.3002
    1R01  A1a7f 6783   1.981   4.972   1.359  0.2880 -0.6494  0.1989
    1R01  A1a80 6784   1.934   4.877   1.338 -2.4743 -2.7008 -0.3616
    1R01  A1a81 6785   1.873   5.069   1.421  0.2251 -0.5765  0.6844
    1R01  A1a82 6786   1.770   5.032   1.442 -1.8739 -1.5806 -2.6648
    1R01  A1a83 6787   1.858   5.189   1.318  0.5694 -0.6518  0.6121
    1R01  A1a84 6788   1.811   5.279   1.364 -0.4667  0.9496  0.6983
    1R01  A1a85 6789   2.007   5.205   1.269 -0.0599 -0.1412  0.5672
    1R01  A1a86 6790   2.074   5.241   1.345  1.4349  1.4193  0.1114
    1R01  A1a87 6791   2.022   5.267   1.179 -1.7714  1.3766  0.9572
    1R01  A1a88 6792   1.904   5.109   1.002  0.5702  0.7783 -0.2338
    1R01  A1a89 6793   1.949   5.114   0.870  0.4479 -0.4087  0.4910
    1R01  A1a8a 6794   2.029   5.049   0.831 -0.3830 -0.5312  1.6201
    1R01  A1a8b 6795   1.729   5.397   0.731 -0.4756 -0.7079  0.1718
    1R01  A1a8c 6796   1.793   5.366   0.607  0.1594  0.0697 -0.0813
    1R01  A1a8d 6797   1.765   5.442   0.494 -0.4226  0.4752 -0.1600
    1R01  A1a8e 6798   1.806   5.424   0.397  0.4565  0.3689  1.3063
    1R01  A1a8f 6799   1.679   5.551   0.515  0.3596  0.2785 -0.1147
    1R01  A1a90 6800   1.608   5.677   0.446 -0.0020 -0.3972 -0.3091
    1R01  A1a91 6801   1.678   5.759   0.427 -2.5753  1.9167  1.3510
    1R01  A1a92 6802   1.550   5.700   0.589  0.3201  0.0933  0.3913
    1R01  A1a93 6803   1.588   5.790   0.644 -0.0023  2.7916  0.3154
    1R01  A1a94 6804   1.394   5.702   0.572  0.5169  0.1767 -0.3819
    1R01  A1a95 6805   1.335   5.745   0.653 -0.2491 -3.5313  0.4832
    1R01  A1a96 6806   1.353   5.549   0.521 -1.1041 -0.1255 -0.8751
    1R01  A1a97 6807   1.250   5.539   0.521 -0.2963  0.9729  1.2054
    1R01  A1a98 6808   1.428   5.411   0.516  0.2264  0.3970  1.0487
    1R01  A1a99 6809   1.455   5.415   0.381 -1.0121  0.4687 -0.1526
    1R01  A1a9a 6810   1.440   5.305   0.299 -0.6475 -0.2237 -0.2148
    1R01  A1a9b 6811   1.427   5.320   0.147 -0.3197 -0.0221 -0.7124
    1R01  A1a9c 6812   1.490   5.408   0.114  1.4012 -0.7469  1.3243
    1R01  A1a9d 6813   1.465   5.225   0.096 -0.6772 -0.9560 -3.3859
    1R01  A1a9e 6814   1.331   5.353   0.107 -1.0553  3.1621 -0.0164
    1R01  A1a9f 6815   1.457   5.186   0.362 -0.1921 -0.1341 -0.8392
    1R01  A1aa0 6816   1.457   5.171   0.504  0.4484  0.3973 -0.0564
    1R01  A1aa1 6817   1.429   5.288   0.585  1.1189  0.4836  0.6281
    1R01  A1aa2 6818   1.374   5.270   0.722 -0.2379 -0.6258  0.7031
    1R01  A1aa3 6819   1.467   5.262   0.789  2.0264 -3.2222  0.9636
    1R01  A1aa4 6820   1.330   5.171   0.741  0.3594  1.6023 -1.2069
    1R01  A1aa5 6821   1.310   5.355   0.752 -0.2968 -1.5662  0.5749
    1R01  A1aa6 6822   1.397   5.556   0.369  0.4417 -0.1889 -0.0329
    1R01  A1aa7 6823   1.301   5.560   0.306 -0.1678  2.2031 -0.4119
    1R01  A1aa8 6824   1.484   5.680   0.347 -0.1865  0.1502  0.0377
    1R01  A1aa9 6825   1.493   5.702   0.237 -1.3456 -2.8146 -2.2262
    1R01  A1aaa 6826   1.393   5.780   0.430 -0.5394 -0.1470 -0.0577
    1R01  A1aab 6827   1.438   5.877   0.439  0.6436  2.1383  0.3363
    1R01  A1aac 6828   1.298   5.797   0.389  1.7688 -0.0664 -2.3880
    1R01  A1aad 6829   1.622   5.580   0.638  0.4722  0.2039 -0.1632
    1R01  A1aae 6830   1.636   5.501   0.747 -0.3691 -0.0724  0.2236
    1R01  A1aaf 6831   1.602   5.541   0.843 -2.7086 -0.4333 -2.5748
    1R01  A1ab0 6832   2.829   5.240   0.705 -0.4603  0.5012  0.4918
    1R01  A1ab1 6833   2.917   5.226   0.772 -2.1324  0.5018  0.6817
    1R01  A1ab2 6834   2.799   5.143   0.677  2.0767  0.1453  1.9656
    1R01  A1ab3 6835   2.755   5.299   0.758 -0.2499  2.0589  1.4294
    1R01  A1ab4 6836   2.881   5.316   0.579  0.3896  0.4974  0.2224
    1R01  A1ab5 6837   2.981   5.222   0.505  0.2728 -0.1885 -0.2627
    1R01  A1ab6 6838   3.018   5.254   0.405 -0.2725  1.0258 -0.6209
    1R01  A1ab7 6839   2.947   5.119   0.500 -1.0096 -0.0544 -1.0089
    1R01  A1ab8 6840   3.072   5.221   0.569  1.3035 -0.3723 -0.0537
    1R01  A1ab9 6841   2.938   5.460   0.606 -0.1961  0.1494 -1.0021
    1R01  A1aba 6842   2.858   5.546   0.540  0.3575  0.1014  0.0540
    1R01  A1abb 6843   2.903   5.682   0.516  0.0458 -0.1860  0.6009
    1R01  A1abc 6844   2.850   5.756   0.461 -0.3808  0.9646  2.6355
    1R01  A1abd 6845   3.025   5.712   0.576 -0.7168  0.6538 -0.0997
    1R01  A1abe 6846   3.126   5.826   0.573 -0.3732  0.1113 -0.0048
    1R01  A1abf 6847   3.095   5.915   0.629 -1.2016  1.5848 -2.8494
    1R01  A1ac0 6848   3.217   5.733   0.662 -0.2384  0.2105  0.0470
    1R01  A1ac1 6849   3.234   5.766   0.761 -2.6544  2.8358 -1.1064
    1R01  A1ac2 6850   3.356   5.720   0.581 -0.1691 -0.7337  0.1035
    1R01  A1ac3 6851   3.424   5.642   0.605  0.0356  2.2562  0.6418
    1R01  A1ac4 6852   3.408   5.865   0.577  0.1430 -0.2444  0.0580
    1R01  A1ac5 6853   3.509   5.871   0.540 -2.4096 -0.4939  1.0874
    1R01  A1ac6 6854   3.324   5.957   0.490  0.3254  0.4312  0.2969
    1R01  A1ac7 6855   3.384   5.995   0.407  1.7688 -0.1808 -0.4010
    1R01  A1ac8 6856   3.210   5.863   0.444 -0.2113  0.8573 -0.0301
    1R01  A1ac9 6857   3.145   5.897   0.358  0.2031 -0.1721  2.6902
    1R01  A1aca 6858   3.294   5.724   0.431  0.1120  0.2794  0.0357
    1R01  A1acb 6859   3.377   5.718   0.355 -0.6374  0.9760  1.3872
    1R01  A1acc 6860   3.229   5.646   0.409 -2.2981  0.9805 -0.4911
    1R01  A1acd 6861   3.097   5.638   0.651  0.3891  0.0177  0.4360
    1R01  A1ace 6862   3.064   5.502   0.655  0.9271 -0.3278  0.2748
    1R01  A1acf 6863   3.134   5.436   0.695 -0.6556 -0.8906 -0.6499
    1R01  A1ad0 6864   2.750   5.477   0.471 -0.1487 -0.6672  0.8472
    1R01  A1ad1 6865   2.772   5.334   0.478 -0.6552  0.3333 -0.6137
    1R01  A1ad2 6866   2.689   5.238   0.411 -0.7941 -0.9179  0.7836
    1R01  A1ad3 6867   2.706   5.129   0.404  0.2230 -0.5927 -3.5054
    1R01  A1ad4 6868   2.607   5.304   0.317 -0.0138 -0.0733 -0.1781
    1R01  A1ad5 6869   2.510   5.274   0.198  0.2285 -0.0162  0.3276
    1R01  A1ad6 6870   2.561   5.240   0.112  0.3589 -0.3669  2.1784
    1R01  A1ad7 6871   2.488   5.434   0.192 -0.6405 -1.0221  0.0301
    1R01  A1ad8 6872   2.533   5.475   0.102 -1.1465  0.4549 -2.1698
    1R01  A1ad9 6873   2.332   5.460   0.181 -0.1390 -0.5287 -0.4558
    1R01  A1ada 6874   2.305   5.559   0.138  0.7520 -2.6423  1.3403
    1R01  A1adb 6875   2.270   5.418   0.318  0.7557  0.8471 -1.2129
    1R01  A1adc 6876   2.165   5.443   0.323  2.2163  1.1371 -0.3210
    1R01  A1add 6877   2.337   5.422   0.455 -0.6493 -0.3900 -0.0529
    1R01  A1ade 6878   2.362   5.286   0.462 -0.2144  0.6962  0.0223
    1R01  A1adf 6879   2.365   5.206   0.577 -0.5485  0.0453  0.5932
    1R01  A1ae0 6880   2.358   5.055   0.580 -0.0751 -0.3446 -0.2905
    1R01  A1ae1 6881   2.456   5.012   0.553  0.6281  0.1053 -0.9853
    1R01  A1ae2 6882   2.279   5.014   0.520  1.7777  0.4230  1.9740
    1R01  A1ae3 6883   2.333   5.042   0.681 -0.1308  2.5950 -0.0638
    1R01  A1ae4 6884   2.381   5.287   0.692 -0.0132  0.0088 -0.5312
    1R01  A1ae5 6885   2.351   5.423   0.690 -0.3199 -0.8871  0.4485
    1R01  A1ae6 6886   2.318   5.493   0.569  0.0990  0.1480  0.7280
    1R01  A1ae7 6887   2.233   5.625   0.571 -0.9763 -0.3891  0.1654
    1R01  A1ae8 6888   2.292   5.700   0.625 -2.7541 -0.9952 -1.5779
    1R01  A1ae9 6889   2.215   5.672   0.473 -1.4219 -0.0415 -0.2070
    1R01  A1aea 6890   2.137   5.610   0.621 -1.7595 -1.3133 -0.1941
    1R01  A1aeb 6891   2.299   5.259   0.333 -0.4575  0.1066  0.5100
    1R01  A1aec 6892   2.210   5.209   0.351  0.9126  1.8273 -0.9216
    1R01  A1aed 6893   2.364   5.213   0.202  0.2924  0.0762  0.0807
    1R01  A1aee 6894   2.353   5.107   0.180  0.7458 -1.4902 -0.2240
    1R01  A1aef 6895   2.292   5.323   0.107  0.3141  0.1225  0.1722
    1R01  A1af0 6896   2.184   5.296   0.105 -0.2372 -0.8016  0.1351
    1R01  A1af1 6897   2.332   5.320   0.003  2.1743 -0.0711  0.1107
    1R01  A1af2 6898   2.590   5.436   0.309  0.2647  0.0273 -0.7631
    1R01  A1af3 6899   2.650   5.530   0.392 -0.4863 -0.3434  1.0715
    1R01  A1af4 6900   2.624   5.637   0.393  1.7567 -0.9504 -0.5298
   4.43022   4.43022   4.43022
