Untitled
 6900
  1011       A1    1   0.942   4.331   5.111
  1011       A2    2   0.869   4.353   5.187
  1011       A3    3   0.984   4.228   5.148
  1011       A4    4   0.893   4.305   5.016
  1011       A5    5   1.046   4.438   5.089
  1011       A6    6   1.147   4.437   5.201
  1011       A7    7   1.204   4.530   5.191
  1011       A8    8   1.101   4.431   0.870
  1011       A9    9   1.208   4.346   5.189
  1011       Aa   10   0.986   4.575   5.073
  1011       Ab   11   1.000   4.604   4.937
  1011       Ac   12   0.974   4.739   4.894
  1011       Ad   13   0.992   4.778   4.793
  1011       Ae   14   0.924   4.828   4.989
  1011       Af   15   0.925   4.978   4.997
  1011      A10   16   0.842   5.025   4.936
  1011      A11   17   0.894   4.952   5.153
  1011      A12   18   0.799   4.981   5.187
  1011      A13   19   1.006   5.022   0.800
  1011      A14   20   1.018   5.000   0.909
  1011      A15   21   0.977   5.174   5.193
  1011      A16   22   0.881   5.211   0.800
  1011      A17   23   1.019   5.192   5.040
  1011      A18   24   0.944   0.804   4.968
  1011      A19   25   1.066   5.049   4.991
  1011      A1a   26   1.121   5.052   4.899
  1011      A1b   27   1.127   4.991   5.135
  1011      A1c   28   1.212   5.042   5.175
  1011      A1d   29   1.152   4.878   5.125
  1011      A1e   30   0.901   4.801   5.115
  1011      A1f   31   0.943   4.678   5.173
  1011      A20   32   0.955   4.662   0.849
  1011      A21   33   1.062   4.509   4.862
  1011      A22   34   1.114   4.405   4.947
  1011      A23   35   1.180   4.289   4.899
  1011      A24   36   1.214   4.223   4.967
  1011      A25   37   1.200   4.289   4.756
  1011      A26   38   1.266   4.209   4.645
  1011      A27   39   1.375   4.206   4.661
  1011      A28   40   1.219   4.332   4.551
  1011      A29   41   1.306   4.388   4.518
  1011      A2a   42   1.149   4.274   4.433
  1011      A2b   43   1.148   4.342   4.351
  1011      A2c   44   1.018   4.203   4.475
  1011      A2d   45   0.964   4.167   4.388
  1011      A2e   46   0.935   4.227   4.602
  1011      A2f   47   0.983   4.124   4.671
  1011      A30   48   0.926   4.077   4.783
  1011      A31   49   0.958   3.951   4.858
  1011      A32   50   0.861   3.910   4.895
  1011      A33   51   1.000   3.869   4.793
  1011      A34   52   1.032   3.962   4.941
  1011      A35   53   0.817   4.152   4.824
  1011      A36   54   5.203   4.265   4.760
  1011      A37   55   0.825   4.308   4.638
  1011      A38   56   5.198   4.416   4.558
  1011      A39   57   0.787   4.400   4.448
  1011      A3a   58   0.829   4.508   4.582
  1011      A3b   59   5.089   4.443   4.585
  1011      A3c   60   1.071   4.073   4.556
  1011      A3d   61   1.038   3.978   4.512
  1011      A3e   62   1.225   4.078   4.562
  1011      A3f   63   1.264   3.980   4.584
  1011      A40   64   1.239   4.140   4.419
  1011      A41   65   1.348   4.161   4.403
  1011      A42   66   1.204   4.071   4.341
  1011      A43   67   1.160   4.390   4.677
  1011      A44   68   1.092   4.503   4.725
  1011      A45   69   1.074   4.589   4.655
  1011      A46   70   2.248   1.398   1.078
  1011      A47   71   2.240   1.392   1.188
  1011      A48   72   2.351   1.424   1.064
  1011      A49   73   2.186   1.479   1.043
  1011      A4a   74   2.197   1.264   1.021
  1011      A4b   75   2.308   1.162   1.059
  1011      A4c   76   2.268   1.062   1.042
  1011      A4d   77   2.343   1.162   1.160
  1011      A4e   78   2.395   1.181   0.998
  1011      A4f   79   2.178   1.256   0.868
  1011      A50   80   2.046   1.228   0.847
  1011      A51   81   1.984   1.233   5.152
  1011      A52   82   1.874   1.219   5.135
  1011      A53   83   2.077   1.235   5.044
  1011      A54   84   2.088   1.261   4.891
  1011      A55   85   2.024   1.355   4.875
  1011      A56   86   2.244   1.276   4.920
  1011      A57   87   2.278   1.374   4.904
  1011      A58   88   2.314   1.169   4.825
  1011      A59   89   2.419   1.132   4.855
  1011      A5a   90   2.299   1.250   4.693
  1011      A5b   91   2.328   1.359   4.701
  1011      A5c   92   2.144   1.242   4.656
  1011      A5d   93   2.108   1.344   4.661
  1011      A5e   94   2.075   1.162   4.775
  1011      A5f   95   1.979   1.117   4.753
  1011      A60   96   2.194   1.064   4.819
  1011      A61   97   2.169   1.037   4.923
  1011      A62   98   2.213   0.972   4.757
  1011      A63   99   2.204   1.259   5.065
  1011      A64  100   2.265   1.274   5.191
  1011      A65  101   2.373   1.289   5.210
  1011      A66  102   1.971   1.202   0.976
  1011      A67  103   2.062   1.216   1.084
  1011      A68  104   2.029   1.217   1.220
  1011      A69  105   2.090   1.253   1.302
  1011      A6a  106   1.901   1.167   1.242
  1011      A6b  107   1.786   1.147   1.348
  1011      A6c  108   1.811   1.053   1.402
  1011      A6d  109   1.688   1.127   1.231
  1011      A6e  110   1.651   1.027   1.220
  1011      A6f  111   1.570   1.224   1.233
  1011      A70  112   1.478   1.199   1.174
  1011      A71  113   1.623   1.371   1.222
  1011      A72  114   1.542   1.442   1.212
  1011      A73  115   1.749   1.432   1.158
  1011      A74  116   1.815   1.445   1.284
  1011      A75  117   1.926   1.529   1.308
  1011      A76  118   2.014   1.511   1.433
  1011      A77  119   2.058   1.603   1.485
  1011      A78  120   1.960   1.456   1.513
  1011      A79  121   2.105   1.446   1.416
  1011      A7a  122   1.962   1.606   1.193
  1011      A7b  123   1.899   1.588   1.066
  1011      A7c  124   1.787   1.504   1.043
  1011      A7d  125   1.719   1.505   0.911
  1011      A7e  126   1.614   1.521   0.931
  1011      A7f  127   1.756   1.591   0.854
  1011      A80  128   1.750   1.419   0.856
  1011      A81  129   1.710   1.386   1.363
  1011      A82  130   1.678   1.464   1.427
  1011      A83  131   1.709   1.249   1.435
  1011      A84  132   1.739   1.248   1.541
  1011      A85  133   1.557   1.217   1.396
  1011      A86  134   1.539   1.111   1.434
  1011      A87  135   1.479   1.282   1.448
  1011      A88  136   1.810   1.138   1.141
  1011      A89  137   1.838   1.168   1.004
  1011      A8a  138   1.764   1.162   0.931
  1011      A8b  139   2.791   4.173   2.533
  1011      A8c  140   2.831   4.276   2.531
  1011      A8d  141   2.802   4.145   2.632
  1011      A8e  142   2.681   4.175   2.520
  1011      A8f  143   2.847   4.089   2.418
  1011      A90  144   2.792   3.946   2.415
  1011      A91  145   2.842   3.885   2.342
  1011      A92  146   2.693   3.940   2.392
  1011      A93  147   2.815   3.896   2.508
  1011      A94  148   3.004   4.088   2.425
  1011      A95  149   3.047   4.174   2.324
  1011      A96  150   3.178   4.226   2.321
  1011      A97  151   3.205   4.299   2.247
  1011      A98  152   3.260   4.179   2.425
  1011      A99  153   3.392   4.202   2.487
  1011      A9a  154   3.403   4.288   2.556
  1011      A9b  155   3.365   4.068   2.569
  1011      A9c  156   3.343   4.091   2.673
  1011      A9d  157   3.482   3.968   2.525
  1011      A9e  158   3.459   3.862   2.536
  1011      A9f  159   3.596   4.036   2.596
  1011      Aa0  160   3.586   4.025   2.709
  1011      Aa1  161   3.613   4.179   2.523
  1011      Aa2  162   3.605   4.268   2.592
  1011      Aa3  163   3.522   4.180   2.400
  1011      Aa4  164   3.532   4.242   2.314
  1011      Aa5  165   3.511   4.027   2.374
  1011      Aa6  166   3.431   4.007   2.300
  1011      Aa7  167   3.606   3.990   2.332
  1011      Aa8  168   3.221   4.075   2.504
  1011      Aa9  169   3.091   4.025   2.511
  1011      Aaa  170   3.065   3.963   2.594
  1011      Aab  171   2.935   4.200   2.231
  1011      Aac  172   2.811   4.155   2.285
  1011      Aad  173   2.695   4.142   2.205
  1011      Aae  174   2.608   4.087   2.235
  1011      Aaf  175   2.707   4.182   2.072
  1011      Ab0  176   2.639   4.159   1.940
  1011      Ab1  177   2.606   4.056   1.925
  1011      Ab2  178   2.778   4.196   1.870
  1011      Ab3  179   2.834   4.116   1.823
  1011      Ab4  180   2.746   4.302   1.760
  1011      Ab5  181   2.814   4.314   1.673
  1011      Ab6  182   2.689   4.435   1.837
  1011      Ab7  183   2.669   4.506   1.767
  1011      Ab8  184   2.728   4.486   1.968
  1011      Ab9  185   2.610   4.453   2.034
  1011      Aba  186   2.574   4.522   2.146
  1011      Abb  187   2.435   4.509   2.217
  1011      Abc  188   2.382   4.600   2.195
  1011      Abd  189   2.457   4.502   2.322
  1011      Abe  190   2.377   4.424   2.185
  1011      Abf  191   2.667   4.610   2.195
  1011      Ac0  192   2.772   4.647   2.121
  1011      Ac1  193   2.820   4.580   2.011
  1011      Ac2  194   2.945   4.602   1.937
  1011      Ac3  195   2.915   4.611   1.827
  1011      Ac4  196   3.011   4.516   1.952
  1011      Ac5  197   3.005   4.692   1.967
  1011      Ac6  198   2.553   4.389   1.907
  1011      Ac7  199   2.462   4.445   1.878
  1011      Ac8  200   2.533   4.245   1.862
  1011      Ac9  201   2.431   4.202   1.856
  1011      Aca  202   2.599   4.251   1.715
  1011      Acb  203   2.544   4.319   1.649
  1011      Acc  204   2.608   4.155   1.661
  1011      Acd  205   2.824   4.216   2.015
  1011      Ace  206   2.938   4.224   2.089
  1011      Acf  207   3.037   4.248   2.049
  1011      Ad0  208   4.674   0.899   4.295
  1011      Ad1  209   4.585   0.958   4.315
  1011      Ad2  210   4.651   0.805   4.350
  1011      Ad3  211   4.676   0.874   4.186
  1011      Ad4  212   4.801   0.965   4.351
  1011      Ad5  213   4.923   0.896   4.297
  1011      Ad6  214   5.010   0.954   4.326
  1011      Ad7  215   4.919   0.893   4.190
  1011      Ad8  216   4.943   0.795   4.339
  1011      Ad9  217   4.814   0.963   4.507
  1011      Ada  218   4.837   1.094   4.544
  1011      Adb  219   4.830   1.128   4.679
  1011      Adc  220   4.828   1.232   4.706
  1011      Add  221   4.806   1.020   4.769
  1011      Ade  222   4.762   0.997   4.905
  1011      Adf  223   4.658   1.035   4.925
  1011      Ae0  224   4.752   0.846   4.855
  1011      Ae1  225   4.650   0.813   4.844
  1011      Ae2  226   4.834   5.196   4.963
  1011      Ae3  227   4.874   5.097   4.943
  1011      Ae4  228   4.739   5.202   5.087
  1011      Ae5  229   4.641   5.157   5.059
  1011      Ae6  230   4.742   0.929   5.127
  1011      Ae7  231   4.637   0.987   5.135
  1011      Ae8  232   4.845   1.004   5.031
  1011      Ae9  233   4.887   1.098   5.070
  1011      Aea  234   4.938   0.880   5.006
  1011      Aeb  235   5.017   0.875   4.925
  1011      Aec  236   4.997   0.863   5.097
  1011      Aed  237   4.806   0.894   4.726
  1011      Aee  238   4.792   0.855   4.590
  1011      Aef  239   4.759   5.187   4.556
  1011      Af0  240   4.851   1.182   4.429
  1011      Af1  241   4.812   1.113   4.315
  1011      Af2  242   4.791   1.170   4.187
  1011      Af3  243   4.755   1.128   4.094
  1011      Af4  244   4.795   1.311   4.199
  1011      Af5  245   4.768   1.432   4.109
  1011      Af6  246   4.833   1.433   4.018
  1011      Af7  247   4.829   1.512   4.234
  1011      Af8  248   4.928   1.563   4.211
  1011      Af9  249   4.738   1.632   4.257
  1011      Afa  250   4.775   1.727   4.297
  1011      Afb  251   4.607   1.573   4.313
  1011      Afc  252   4.546   1.663   4.342
  1011      Afd  253   4.590   1.447   4.400
  1011      Afe  254   4.532   1.374   4.301
  1011      Aff  255   4.480   1.248   4.319
  1011     A100  256   4.393   1.184   4.209
  1011     A101  257   4.439   1.158   4.115
  1011     A102  258   4.313   1.260   4.175
  1011     A103  259   4.337   1.097   4.241
  1011     A104  260   4.491   1.201   4.448
  1011     A105  261   4.548   1.277   4.550
  1011     A106  262   4.607   1.401   4.529
  1011     A107  263   4.662   1.488   4.633
  1011     A108  264   4.645   1.440   4.736
  1011     A109  265   4.770   1.517   4.627
  1011     A10a  266   4.597   1.573   4.633
  1011     A10b  267   4.542   1.480   4.199
  1011     A10c  268   4.440   1.514   4.168
  1011     A10d  269   4.638   1.494   4.073
  1011     A10e  270   4.594   1.463   3.977
  1011     A10f  271   4.691   1.637   4.097
  1011     A110  272   4.614   1.709   4.079
  1011     A111  273   4.780   1.665   4.038
  1011     A112  274   4.846   1.375   4.304
  1011     A113  275   4.874   1.320   4.430
  1011     A114  276   4.895   1.375   4.523
  1011     A115  277   3.435   3.440   0.825
  1011     A116  278   3.419   3.348   5.203
  1011     A117  279   3.348   3.433   0.884
  1011     A118  280   3.530   3.425   0.882
  1011     A119  281   3.425   3.561   5.170
  1011     A11a  282   3.310   3.537   5.065
  1011     A11b  283   3.324   3.450   4.987
  1011     A11c  284   3.297   3.627   5.012
  1011     A11d  285   3.211   3.526   5.117
  1011     A11e  286   3.558   3.590   5.096
  1011     A11f  287   3.610   3.709   5.152
  1011     A120  288   3.741   3.756   5.122
  1011     A121  289   3.781   3.852   5.167
  1011     A122  290   3.816   3.670   5.037
  1011     A123  291   3.950   3.665   4.974
  1011     A124  292   4.030   3.659   5.055
  1011     A125  293   3.898   3.530   4.909
  1011     A126  294   3.928   3.428   4.941
  1011     A127  295   3.916   3.559   4.759
  1011     A128  296   3.860   3.485   4.694
  1011     A129  297   4.073   3.570   4.749
  1011     A12a  298   4.115   3.483   4.793
  1011     A12b  299   4.116   3.705   4.819
  1011     A12c  300   4.190   3.700   4.897
  1011     A12d  301   3.986   3.766   4.860
  1011     A12e  302   3.991   3.872   4.882
  1011     A12f  303   3.887   3.713   4.749
  1011     A130  304   3.782   3.747   4.772
  1011     A131  305   3.913   3.748   4.648
  1011     A132  306   3.770   3.558   4.981
  1011     A133  307   3.642   3.509   5.009
  1011     A134  308   3.621   3.408   4.989
  1011     A135  309   3.511   3.773   0.814
  1011     A136  310   3.402   3.687   0.829
  1011     A137  311   3.284   3.731   0.895
  1011     A138  312   3.201   3.667   0.927
  1011     A139  313   3.286   3.863   0.928
  1011     A13a  314   3.181   3.979   0.939
  1011     A13b  315   3.119   3.976   0.848
  1011     A13c  316   3.304   4.073   0.922
  1011     A13d  317   3.317   4.130   0.827
  1011     A13e  318   3.298   4.184   1.038
  1011     A13f  319   3.362   4.271   1.014
  1011     A140  320   3.302   4.107   1.179
  1011     A141  321   3.307   4.183   1.258
  1011     A142  322   3.360   3.975   1.220
  1011     A143  323   3.234   3.915   1.241
  1011     A144  324   3.215   3.792   1.302
  1011     A145  325   3.076   3.743   1.342
  1011     A146  326   3.039   3.802   1.429
  1011     A147  327   3.075   3.637   1.372
  1011     A148  328   3.005   3.768   1.259
  1011     A149  329   3.333   3.737   1.331
  1011     A14a  330   3.457   3.782   1.296
  1011     A14b  331   3.473   3.903   1.239
  1011     A14c  332   3.605   3.940   1.189
  1011     A14d  333   3.620   4.044   1.199
  1011     A14e  334   3.685   3.894   1.247
  1011     A14f  335   3.618   3.909   1.079
  1011     A150  336   3.161   4.030   1.197
  1011     A151  337   3.098   4.073   1.282
  1011     A152  338   3.094   4.046   1.057
  1011     A153  339   2.986   4.024   1.049
  1011     A154  340   3.141   4.199   1.037
  1011     A155  341   3.102   4.268   1.110
  1011     A156  342   3.105   4.241   0.946
  1011     A157  343   3.393   3.947   0.914
  1011     A158  344   3.506   3.911   0.844
  1011     A159  345   3.580   3.982   0.810
  1011     A15a  346   3.897   3.261   3.962
  1011     A15b  347   3.817   3.285   4.030
  1011     A15c  348   3.904   3.330   3.874
  1011     A15d  349   3.980   3.272   4.038
  1011     A15e  350   3.880   3.127   3.908
  1011     A15f  351   3.762   3.125   3.810
  1011     A160  352   3.773   3.201   3.732
  1011     A161  353   3.668   3.147   3.868
  1011     A162  354   3.756   3.038   3.753
  1011     A163  355   3.842   3.031   4.025
  1011     A164  356   3.945   2.927   4.020
  1011     A165  357   3.940   2.818   4.120
  1011     A166  358   4.015   2.745   4.117
  1011     A167  359   3.841   2.824   4.213
  1011     A168  360   3.774   2.732   4.322
  1011     A169  361   3.822   2.732   4.417
  1011     A16a  362   3.657   2.839   4.303
  1011     A16b  363   3.640   2.901   4.394
  1011     A16c  364   3.534   2.755   4.257
  1011     A16d  365   3.458   2.815   4.197
  1011     A16e  366   3.505   2.676   4.385
  1011     A16f  367   3.493   2.743   4.470
  1011     A170  368   3.623   2.566   4.402
  1011     A171  369   3.668   2.585   4.503
  1011     A172  370   3.727   2.594   4.288
  1011     A173  371   3.795   2.515   4.260
  1011     A174  372   3.620   2.634   4.179
  1011     A175  373   3.560   2.548   4.157
  1011     A176  374   3.669   2.661   4.088
  1011     A177  375   3.739   2.914   4.208
  1011     A178  376   3.733   3.027   4.112
  1011     A179  377   3.657   3.107   4.108
  1011     A17a  378   4.041   2.952   3.925
  1011     A17b  379   4.008   3.071   3.848
  1011     A17c  380   4.092   3.109   3.744
  1011     A17d  381   4.068   3.191   3.676
  1011     A17e  382   4.208   3.036   3.721
  1011     A17f  383   4.328   3.021   3.632
  1011     A180  384   4.288   3.019   3.528
  1011     A181  385   4.356   2.885   3.709
  1011     A182  386   4.346   2.799   3.648
  1011     A183  387   4.510   2.888   3.750
  1011     A184  388   4.561   2.790   3.755
  1011     A185  389   4.530   2.999   3.860
  1011     A186  390   4.633   2.994   3.902
  1011     A187  391   4.432   3.043   3.967
  1011     A188  392   4.407   3.168   3.905
  1011     A189  393   4.319   3.268   3.962
  1011     A18a  394   4.297   3.399   3.891
  1011     A18b  395   4.228   3.460   3.954
  1011     A18c  396   4.390   3.452   3.890
  1011     A18d  397   4.265   3.391   3.788
  1011     A18e  398   4.263   3.227   4.086
  1011     A18f  399   4.285   3.097   4.145
  1011     A190  400   4.371   3.002   4.082
  1011     A191  401   4.389   2.867   4.149
  1011     A192  402   4.403   2.789   4.079
  1011     A193  403   4.312   2.843   4.220
  1011     A194  404   4.472   2.872   4.212
  1011     A195  405   4.500   3.133   3.789
  1011     A196  406   4.596   3.184   3.789
  1011     A197  407   4.466   3.097   3.638
  1011     A198  408   4.477   3.172   3.560
  1011     A199  409   4.554   2.967   3.624
  1011     A19a  410   4.656   2.987   3.635
  1011     A19b  411   4.530   2.917   3.526
  1011     A19c  412   4.231   2.919   3.789
  1011     A19d  413   4.161   2.869   3.898
  1011     A19e  414   4.184   2.782   3.961
  1011     A19f  415   3.388   1.535   3.664
  1011     A1a0  416   3.458   1.508   3.588
  1011     A1a1  417   3.281   1.517   3.635
  1011     A1a2  418   3.403   1.643   3.677
  1011     A1a3  419   3.422   1.473   3.804
  1011     A1a4  420   3.379   1.316   3.789
  1011     A1a5  421   3.435   1.257   3.721
  1011     A1a6  422   3.272   1.306   3.767
  1011     A1a7  423   3.394   1.268   3.883
  1011     A1a8  424   3.336   1.545   3.914
  1011     A1a9  425   3.428   1.607   3.997
  1011     A1aa  426   3.385   1.692   4.104
  1011     A1ab  427   3.451   1.759   4.160
  1011     A1ac  428   3.253   1.698   4.128
  1011     A1ad  429   3.160   1.733   4.244
  1011     A1ae  430   3.150   1.842   4.250
  1011     A1af  431   3.050   1.653   4.162
  1011     A1b0  432   2.971   1.716   4.145
  1011     A1b1  433   3.000   1.538   4.252
  1011     A1b2  434   2.946   1.453   4.212
  1011     A1b3  435   2.926   1.624   4.358
  1011     A1b4  436   2.842   1.680   4.319
  1011     A1b5  437   3.035   1.699   4.444
  1011     A1b6  438   3.019   1.807   4.444
  1011     A1b7  439   3.170   1.663   4.378
  1011     A1b8  440   3.266   1.687   4.427
  1011     A1b9  441   3.132   1.513   4.329
  1011     A1ba  442   3.207   1.466   4.262
  1011     A1bb  443   3.122   1.435   4.410
  1011     A1bc  444   3.161   1.631   4.056
  1011     A1bd  445   3.195   1.557   3.944
  1011     A1be  446   3.118   1.495   3.889
  1011     A1bf  447   3.564   1.587   3.953
  1011     A1c0  448   3.563   1.498   3.846
  1011     A1c1  449   3.679   1.432   3.804
  1011     A1c2  450   3.672   1.346   3.744
  1011     A1c3  451   3.794   1.465   3.872
  1011     A1c4  452   3.918   1.384   3.921
  1011     A1c5  453   3.893   1.279   3.944
  1011     A1c6  454   3.907   1.483   4.050
  1011     A1c7  455   3.873   1.431   4.133
  1011     A1c8  456   4.056   1.535   4.066
  1011     A1c9  457   4.082   1.571   4.161
  1011     A1ca  458   4.081   1.631   3.943
  1011     A1cb  459   4.168   1.699   3.957
  1011     A1cc  460   3.984   1.714   3.846
  1011     A1cd  461   4.016   1.632   3.738
  1011     A1ce  462   3.965   1.647   3.608
  1011     A1cf  463   3.989   1.559   3.497
  1011     A1d0  464   3.912   1.573   3.426
  1011     A1d1  465   4.080   1.576   3.447
  1011     A1d2  466   3.986   1.448   3.529
  1011     A1d3  467   3.893   1.769   3.599
  1011     A1d4  468   3.860   1.847   3.706
  1011     A1d5  469   3.898   1.827   3.836
  1011     A1d6  470   3.838   1.903   3.951
  1011     A1d7  471   3.900   1.895   4.035
  1011     A1d8  472   3.743   1.864   3.988
  1011     A1d9  473   3.824   2.006   3.917
  1011     A1da  474   4.093   1.531   3.820
  1011     A1db  475   4.190   1.520   3.768
  1011     A1dc  476   4.067   1.387   3.875
  1011     A1dd  477   4.104   1.311   3.812
  1011     A1de  478   4.127   1.404   4.020
  1011     A1df  479   4.243   1.400   4.014
  1011     A1e0  480   4.101   1.320   4.082
  1011     A1e1  481   3.789   1.547   3.984
  1011     A1e2  482   3.675   1.603   4.036
  1011     A1e3  483   3.660   1.646   4.134
  1011     A1e4  484   4.210   2.052   4.081
  1011     A1e5  485   4.151   2.002   4.016
  1011     A1e6  486   4.153   2.146   4.085
  1011     A1e7  487   4.304   2.093   4.040
  1011     A1e8  488   4.241   1.978   4.212
  1011     A1e9  489   4.327   1.849   4.186
  1011     A1ea  490   4.425   1.871   4.144
  1011     A1eb  491   4.329   1.782   4.272
  1011     A1ec  492   4.280   1.785   4.118
  1011     A1ed  493   4.118   1.935   4.292
  1011     A1ee  494   4.114   2.018   4.409
  1011     A1ef  495   4.011   2.015   4.502
  1011     A1f0  496   4.009   2.065   4.598
  1011     A1f1  497   3.915   1.914   4.479
  1011     A1f2  498   3.784   1.849   4.532
  1011     A1f3  499   3.704   1.925   4.540
  1011     A1f4  500   3.785   1.770   4.389
  1011     A1f5  501   3.713   1.791   4.311
  1011     A1f6  502   3.776   1.620   4.435
  1011     A1f7  503   3.815   1.543   4.368
  1011     A1f8  504   3.632   1.611   4.490
  1011     A1f9  505   3.567   1.644   4.409
  1011     A1fa  506   3.630   1.695   4.626
  1011     A1fb  507   3.565   1.780   4.629
  1011     A1fc  508   3.782   1.740   4.646
  1011     A1fd  509   3.806   1.772   4.745
  1011     A1fe  510   3.853   1.620   4.567
  1011     A1ff  511   3.834   1.528   4.622
  1011     A200  512   3.962   1.642   4.561
  1011     A201  513   3.909   1.844   4.358
  1011     A202  514   4.014   1.846   4.261
  1011     A203  515   3.998   1.784   4.173
  1011     A204  516   4.234   2.103   4.416
  1011     A205  517   4.318   2.074   4.305
  1011     A206  518   4.445   2.131   4.279
  1011     A207  519   4.506   2.091   4.192
  1011     A208  520   4.484   2.230   4.369
  1011     A209  521   4.606   2.310   4.428
  1011     A20a  522   4.674   2.235   4.474
  1011     A20b  523   4.495   2.353   4.533
  1011     A20c  524   4.520   2.318   4.635
  1011     A20d  525   4.487   2.515   4.538
  1011     A20e  526   4.433   2.551   4.624
  1011     A20f  527   4.447   2.555   4.392
  1011     A210  528   4.434   2.662   4.384
  1011     A211  529   4.368   2.490   4.278
  1011     A212  530   4.484   2.473   4.198
  1011     A213  531   4.484   2.479   4.060
  1011     A214  532   4.603   2.514   3.974
  1011     A215  533   4.648   2.426   3.922
  1011     A216  534   4.685   2.573   4.022
  1011     A217  535   4.571   2.596   3.902
  1011     A218  536   4.353   2.464   4.010
  1011     A219  537   4.234   2.456   4.078
  1011     A21a  538   4.236   2.479   4.222
  1011     A21b  539   4.108   2.508   4.300
  1011     A21c  540   4.085   2.614   4.322
  1011     A21d  541   4.017   2.461   4.256
  1011     A21e  542   4.110   2.464   4.400
  1011     A21f  543   4.571   2.530   4.305
  1011     A220  544   4.612   2.614   4.263
  1011     A221  545   4.674   2.449   4.390
  1011     A222  546   4.771   2.447   4.332
  1011     A223  547   4.646   2.532   4.521
  1011     A224  548   4.706   2.498   4.603
  1011     A225  549   4.675   2.639   4.503
  1011     A226  550   4.389   2.267   4.471
  1011     A227  551   4.277   2.198   4.509
  1011     A228  552   4.218   2.230   4.594
  1011     A229  553   4.450   4.901   0.991
  1011     A22a  554   4.495   4.973   0.927
  1011     A22b  555   4.499   4.801   0.985
  1011     A22c  556   4.354   4.881   0.930
  1011     A22d  557   4.423   4.942   1.139
  1011     A22e  558   4.386   4.825   1.237
  1011     A22f  559   4.442   4.739   1.215
  1011     A230  560   4.279   4.790   1.236
  1011     A231  561   4.416   4.846   1.341
  1011     A232  562   4.319   5.056   1.153
  1011     A233  563   4.389   5.175   1.207
  1011     A234  564   4.314   0.856   1.256
  1011     A235  565   4.361   0.943   1.307
  1011     A236  566   4.174   0.838   1.248
  1011     A237  567   4.042   0.907   1.281
  1011     A238  568   4.038   0.987   1.213
  1011     A239  569   3.969   5.202   1.231
  1011     A23a  570   3.918   0.790   1.137
  1011     A23b  571   3.873   5.160   1.348
  1011     A23c  572   3.840   5.059   1.335
  1011     A23d  573   3.773   0.844   1.348
  1011     A23e  574   3.738   0.856   1.241
  1011     A23f  575   3.849   0.976   1.400
  1011     A240  576   3.845   1.071   1.341
  1011     A241  577   3.993   0.938   1.428
  1011     A242  578   4.052   1.000   1.494
  1011     A243  579   3.963   5.212   1.477
  1011     A244  580   4.055   5.153   1.487
  1011     A245  581   3.920   5.193   1.579
  1011     A246  582   4.110   5.157   1.202
  1011     A247  583   4.178   5.042   1.153
  1011     A248  584   4.127   4.951   1.128
  1011     A249  585   4.527   5.145   1.217
  1011     A24a  586   4.554   5.005   1.186
  1011     A24b  587   4.678   4.936   1.195
  1011     A24c  588   4.691   4.830   1.176
  1011     A24d  589   4.779   5.024   1.242
  1011     A24e  590   4.928   5.017   1.284
  1011     A24f  591   4.941   4.952   1.370
  1011     A250  592   4.908   5.164   1.326
  1011     A251  593   4.894   5.181   1.431
  1011     A252  594   5.040   0.804   1.264
  1011     A253  595   5.080   0.902   1.308
  1011     A254  596   5.021   0.806   1.109
  1011     A255  597   5.104   0.863   1.062
  1011     A256  598   4.896   0.830   1.025
  1011     A257  599   4.897   5.124   0.991
  1011     A258  600   4.839   5.076   0.870
  1011     A259  601   4.863   4.940   0.810
  1011     A25a  602   4.849   4.942   5.127
  1011     A25b  603   4.967   4.904   0.827
  1011     A25c  604   4.806   4.854   0.840
  1011     A25d  605   4.767   5.175   0.805
  1011     A25e  606   4.777   0.882   0.837
  1011     A25f  607   4.841   0.939   0.947
  1011     A260  608   4.877   1.084   0.959
  1011     A261  609   4.987   1.102   0.959
  1011     A262  610   4.825   1.147   0.882
  1011     A263  611   4.844   1.128   1.056
  1011     A264  612   5.027   5.088   1.061
  1011     A265  613   5.110   5.077   0.985
  1011     A266  614   5.056   5.008   1.191
  1011     A267  615   5.092   4.902   1.184
  1011     A268  616   5.139   5.118   1.266
  1011     A269  617   0.798   5.147   1.212
  1011     A26a  618   5.169   5.082   1.361
  1011     A26b  619   4.758   5.152   1.270
  1011     A26c  620   4.636   0.797   1.268
  1011     A26d  621   4.624   0.899   1.305
  1011     A26e  622   2.123   2.052   4.787
  1011     A26f  623   2.213   2.082   4.847
  1011     A270  624   2.155   1.973   4.724
  1011     A271  625   2.068   1.993   4.854
  1011     A272  626   2.042   2.167   4.727
  1011     A273  627   1.900   2.107   4.679
  1011     A274  628   1.836   2.193   4.649
  1011     A275  629   1.851   2.047   4.761
  1011     A276  630   1.913   2.051   4.587
  1011     A277  631   2.126   2.236   4.609
  1011     A278  632   2.159   2.370   4.652
  1011     A279  633   2.265   2.446   4.593
  1011     A27a  634   2.305   2.532   4.641
  1011     A27b  635   2.314   2.384   4.476
  1011     A27c  636   2.449   2.383   4.408
  1011     A27d  637   2.526   2.352   4.481
  1011     A27e  638   2.398   2.257   4.331
  1011     A27f  639   2.444   2.154   4.342
  1011     A280  640   2.398   2.302   4.180
  1011     A281  641   2.342   2.254   4.104
  1011     A282  642   2.554   2.290   4.159
  1011     A283  643   2.600   2.192   4.180
  1011     A284  644   2.621   2.406   4.246
  1011     A285  645   2.683   2.366   4.333
  1011     A286  646   2.501   2.486   4.300
  1011     A287  647   2.522   2.586   4.332
  1011     A288  648   2.387   2.458   4.187
  1011     A289  649   2.414   2.508   4.096
  1011     A28a  650   2.286   2.497   4.216
  1011     A28b  651   2.282   2.263   4.429
  1011     A28c  652   2.191   2.179   4.496
  1011     A28d  653   2.180   2.079   4.468
  1011     A28e  654   2.082   2.402   4.775
  1011     A28f  655   2.027   2.281   4.837
  1011     A290  656   1.956   2.288   4.958
  1011     A291  657   1.902   2.198   4.999
  1011     A292  658   1.942   2.419   5.013
  1011     A293  659   1.842   2.488   5.094
  1011     A294  660   1.735   2.450   5.089
  1011     A295  661   1.864   2.609   5.013
  1011     A296  662   1.778   2.624   4.956
  1011     A297  663   1.891   2.735   5.107
  1011     A298  664   1.874   2.837   5.070
  1011     A299  665   2.026   2.711   5.170
  1011     A29a  666   2.043   2.803   0.802
  1011     A29b  667   2.152   2.644   5.122
  1011     A29c  668   2.141   2.545   5.214
  1011     A29d  669   2.252   2.459   0.812
  1011     A29e  670   2.263   2.365   0.931
  1011     A29f  671   2.232   2.270   0.903
  1011     A2a0  672   2.366   2.363   0.965
  1011     A2a1  673   2.205   2.383   1.017
  1011     A2a2  674   2.365   2.491   5.165
  1011     A2a3  675   2.359   2.577   5.057
  1011     A2a4  676   2.259   2.669   5.033
  1011     A2a5  677   2.254   2.782   4.924
  1011     A2a6  678   2.302   2.872   4.966
  1011     A2a7  679   2.148   2.806   4.904
  1011     A2a8  680   2.301   2.752   4.834
  1011     A2a9  681   2.004   2.596   0.838
  1011     A2aa  682   2.007   2.625   0.943
  1011     A2ab  683   1.854   2.538   0.815
  1011     A2ac  684   1.818   2.464   0.895
  1011     A2ad  685   1.800   2.681   0.801
  1011     A2ae  686   1.803   2.739   0.887
  1011     A2af  687   1.696   2.680   5.202
  1011     A2b0  688   1.970   2.530   4.942
  1011     A2b1  689   2.042   2.528   4.822
  1011     A2b2  690   2.058   2.617   4.763
  1011     A2b3  691   0.816   3.062   3.877
  1011     A2b4  692   0.872   3.081   3.967
  1011     A2b5  693   5.155   3.016   3.914
  1011     A2b6  694   0.875   2.992   3.812
  1011     A2b7  695   0.791   3.201   3.804
  1011     A2b8  696   5.125   3.294   3.883
  1011     A2b9  697   5.160   3.315   3.986
  1011     A2ba  698   5.025   3.249   3.873
  1011     A2bb  699   5.122   3.391   3.832
  1011     A2bc  700   5.153   3.166   3.672
  1011     A2bd  701   0.812   3.205   3.567
  1011     A2be  702   5.208   3.177   3.427
  1011     A2bf  703   0.838   3.210   3.332
  1011     A2c0  704   5.078   3.124   3.408
  1011     A2c1  705   4.977   3.101   3.298
  1011     A2c2  706   4.998   3.014   3.232
  1011     A2c3  707   4.868   3.068   3.409
  1011     A2c4  708   4.826   2.966   3.412
  1011     A2c5  709   4.748   3.168   3.389
  1011     A2c6  710   4.682   3.195   3.471
  1011     A2c7  711   4.690   3.133   3.249
  1011     A2c8  712   4.663   3.022   3.247
  1011     A2c9  713   4.794   3.165   3.138
  1011     A2ca  714   4.822   3.077   3.073
  1011     A2cb  715   4.919   3.222   3.221
  1011     A2cc  716   4.992   3.281   3.174
  1011     A2cd  717   4.836   3.284   3.334
  1011     A2ce  718   4.775   3.370   3.299
  1011     A2cf  719   4.909   3.331   3.402
  1011     A2d0  720   4.990   3.093   3.511
  1011     A2d1  721   5.018   3.110   3.649
  1011     A2d2  722   4.947   3.082   3.730
  1011     A2d3  723   0.931   3.275   3.623
  1011     A2d4  724   0.922   3.273   3.765
  1011     A2d5  725   1.010   3.344   3.842
  1011     A2d6  726   0.996   3.349   3.948
  1011     A2d7  727   1.115   3.408   3.773
  1011     A2d8  728   1.243   3.492   3.791
  1011     A2d9  729   1.210   3.599   3.801
  1011     A2da  730   1.265   3.474   3.633
  1011     A2db  731   1.254   3.572   3.577
  1011     A2dc  732   1.407   3.404   3.625
  1011     A2dd  733   1.460   3.398   3.525
  1011     A2de  734   1.393   3.265   3.708
  1011     A2df  735   1.305   3.200   3.673
  1011     A2e0  736   1.505   3.183   3.761
  1011     A2e1  737   1.488   3.218   3.891
  1011     A2e2  738   1.568   3.173   3.998
  1011     A2e3  739   1.557   3.222   4.141
  1011     A2e4  740   1.650   3.200   4.193
  1011     A2e5  741   1.537   3.332   4.157
  1011     A2e6  742   1.484   3.173   4.202
  1011     A2e7  743   1.664   3.082   3.953
  1011     A2e8  744   1.676   3.039   3.818
  1011     A2e9  745   1.596   3.086   3.714
  1011     A2ea  746   1.608   3.051   3.564
  1011     A2eb  747   1.523   2.997   3.532
  1011     A2ec  748   1.612   3.141   3.503
  1011     A2ed  749   1.701   2.991   3.548
  1011     A2ee  750   1.369   3.308   3.861
  1011     A2ef  751   1.285   3.263   3.917
  1011     A2f0  752   1.376   3.461   3.864
  1011     A2f1  753   1.400   3.498   3.967
  1011     A2f2  754   1.476   3.489   3.745
  1011     A2f3  755   1.587   3.472   3.772
  1011     A2f4  756   1.494   3.600   3.724
  1011     A2f5  757   1.132   3.399   3.633
  1011     A2f6  758   1.034   3.338   3.552
  1011     A2f7  759   1.027   3.344   3.447
  1011     A2f8  760   2.920   1.207   2.079
  1011     A2f9  761   2.991   1.123   2.112
  1011     A2fa  762   2.895   1.184   1.973
  1011     A2fb  763   2.834   1.199   2.149
  1011     A2fc  764   2.987   1.344   2.105
  1011     A2fd  765   3.101   1.367   2.004
  1011     A2fe  766   3.176   1.292   2.025
  1011     A2ff  767   3.065   1.367   1.905
  1011     A300  768   3.141   1.463   2.023
  1011     A301  769   3.049   1.354   2.247
  1011     A302  770   2.983   1.461   2.305
  1011     A303  771   3.007   1.480   2.442
  1011     A304  772   2.956   1.559   2.495
  1011     A305  773   3.105   1.397   2.503
  1011     A306  774   3.162   1.359   2.642
  1011     A307  775   3.075   1.333   2.700
  1011     A308  776   3.224   1.230   2.566
  1011     A309  777   3.183   1.127   2.580
  1011     A30a  778   3.375   1.228   2.613
  1011     A30b  779   3.447   1.170   2.554
  1011     A30c  780   3.365   1.178   2.758
  1011     A30d  781   3.313   1.086   2.772
  1011     A30e  782   3.302   1.311   2.824
  1011     A30f  783   3.210   1.282   2.884
  1011     A310  784   3.279   1.423   2.721
  1011     A311  785   3.257   1.525   2.751
  1011     A312  786   3.395   1.385   2.630
  1011     A313  787   3.495   1.411   2.675
  1011     A314  788   3.396   1.434   2.532
  1011     A315  789   3.167   1.298   2.440
  1011     A316  790   3.133   1.261   2.311
  1011     A317  791   3.156   1.170   2.269
  1011     A318  792   2.888   1.529   2.212
  1011     A319  793   2.886   1.460   2.091
  1011     A31a  794   2.793   1.490   1.990
  1011     A31b  795   2.783   1.444   1.892
  1011     A31c  796   2.714   1.604   2.014
  1011     A31d  797   2.610   1.695   1.951
  1011     A31e  798   2.653   1.753   1.874
  1011     A31f  799   2.613   1.776   2.084
  1011     A320  800   2.664   1.871   2.055
  1011     A321  801   2.465   1.798   2.133
  1011     A322  802   2.444   1.873   2.212
  1011     A323  803   2.430   1.651   2.170
  1011     A324  804   2.484   1.613   2.259
  1011     A325  805   2.284   1.607   2.181
  1011     A326  806   2.285   1.534   2.068
  1011     A327  807   2.181   1.446   2.034
  1011     A328  808   2.180   1.351   1.928
  1011     A329  809   2.261   1.277   1.930
  1011     A32a  810   2.186   1.397   1.830
  1011     A32b  811   2.096   1.288   1.949
  1011     A32c  812   2.076   1.453   2.122
  1011     A32d  813   2.066   1.548   2.216
  1011     A32e  814   2.170   1.626   2.260
  1011     A32f  815   2.178   1.725   2.377
  1011     A330  816   2.239   1.813   2.351
  1011     A331  817   2.232   1.665   2.449
  1011     A332  818   2.080   1.756   2.419
  1011     A333  819   2.428   1.565   2.031
  1011     A334  820   2.485   1.474   2.043
  1011     A335  821   2.468   1.674   1.928
  1011     A336  822   2.452   1.656   1.823
  1011     A337  823   2.404   1.805   1.992
  1011     A338  824   2.413   1.889   1.926
  1011     A339  825   2.292   1.806   2.002
  1011     A33a  826   2.723   1.679   2.131
  1011     A33b  827   2.803   1.647   2.233
  1011     A33c  828   2.787   1.688   2.332
  1011     A33d  829   3.729   3.841   2.959
  1011     A33e  830   3.653   3.832   3.031
  1011     A33f  831   3.675   3.830   2.864
  1011     A340  832   3.796   3.758   2.982
  1011     A341  833   3.814   3.964   3.000
  1011     A342  834   3.879   3.938   3.142
  1011     A343  835   3.805   3.900   3.210
  1011     A344  836   3.908   4.036   3.175
  1011     A345  837   3.962   3.864   3.130
  1011     A346  838   3.709   4.074   2.996
  1011     A347  839   3.764   4.169   2.902
  1011     A348  840   3.693   4.288   2.857
  1011     A349  841   3.735   4.367   2.784
  1011     A34a  842   3.569   4.303   2.925
  1011     A34b  843   3.448   4.389   2.941
  1011     A34c  844   3.385   4.398   2.855
  1011     A34d  845   3.406   4.302   3.066
  1011     A34e  846   3.315   4.244   3.065
  1011     A34f  847   3.411   4.407   3.192
  1011     A350  848   3.422   4.370   3.292
  1011     A351  849   3.288   4.494   3.169
  1011     A352  850   3.274   4.559   3.249
  1011     A353  851   3.309   4.561   3.030
  1011     A354  852   3.302   4.672   3.030
  1011     A355  853   3.456   4.539   2.990
  1011     A356  854   3.507   4.614   2.924
  1011     A357  855   3.526   4.503   3.138
  1011     A358  856   3.539   4.597   3.196
  1011     A359  857   3.624   4.455   3.139
  1011     A35a  858   3.527   4.223   3.028
  1011     A35b  859   3.592   4.104   3.071
  1011     A35c  860   3.555   4.053   3.155
  1011     A35d  861   3.894   4.133   2.850
  1011     A35e  862   3.928   4.008   2.904
  1011     A35f  863   4.048   3.937   2.867
  1011     A360  864   4.051   3.834   2.881
  1011     A361  865   4.129   4.007   2.781
  1011     A362  866   4.242   3.980   2.677
  1011     A363  867   4.332   3.964   2.726
  1011     A364  868   4.226   4.134   2.635
  1011     A365  869   4.299   4.198   2.675
  1011     A366  870   4.254   4.119   2.476
  1011     A367  871   4.295   4.204   2.419
  1011     A368  872   4.124   4.063   2.416
  1011     A369  873   4.144   4.070   2.309
  1011     A36a  874   3.978   4.089   2.455
  1011     A36b  875   3.967   3.967   2.518
  1011     A36c  876   3.846   3.916   2.567
  1011     A36d  877   3.832   3.780   2.631
  1011     A36e  878   3.899   3.710   2.585
  1011     A36f  879   3.873   3.782   2.737
  1011     A370  880   3.727   3.739   2.623
  1011     A371  881   3.745   4.016   2.560
  1011     A372  882   3.757   4.137   2.495
  1011     A373  883   3.875   4.186   2.441
  1011     A374  884   3.890   4.326   2.377
  1011     A375  885   3.835   4.415   2.427
  1011     A376  886   3.996   4.357   2.373
  1011     A377  887   3.868   4.333   2.265
  1011     A378  888   4.105   3.913   2.474
  1011     A379  889   4.094   3.836   2.393
  1011     A37a  890   4.236   3.883   2.549
  1011     A37b  891   4.269   3.776   2.575
  1011     A37c  892   4.338   3.970   2.472
  1011     A37d  893   4.352   3.939   2.367
  1011     A37e  894   4.436   3.970   2.518
  1011     A37f  895   4.106   4.135   2.731
  1011     A380  896   3.984   4.203   2.760
  1011     A381  897   3.967   4.301   2.705
  1011     A382  898   4.419   3.967   0.892
  1011     A383  899   4.511   3.920   0.936
  1011     A384  900   4.329   3.914   0.930
  1011     A385  901   4.419   4.069   0.933
  1011     A386  902   4.427   3.975   5.167
  1011     A387  903   4.413   3.835   5.113
  1011     A388  904   4.312   3.788   5.130
  1011     A389  905   4.427   3.837   5.003
  1011     A38a  906   4.488   3.771   5.166
  1011     A38b  907   4.554   4.055   5.124
  1011     A38c  908   4.509   4.166   5.049
  1011     A38d  909   4.600   4.255   4.983
  1011     A38e  910   4.555   4.325   4.914
  1011     A38f  911   4.740   4.227   5.007
  1011     A390  912   4.880   4.273   4.960
  1011     A391  913   4.912   4.366   5.009
  1011     A392  914   4.924   4.137   5.046
  1011     A393  915   4.973   4.147   5.144
  1011     A394  916   5.008   4.062   4.934
  1011     A395  917   5.033   3.959   4.941
  1011     A396  918   5.133   4.157   4.926
  1011     A397  919   5.169   4.177   5.030
  1011     A398  920   5.086   4.290   4.848
  1011     A399  921   5.108   4.379   4.906
  1011     A39a  922   4.933   4.267   4.813
  1011     A39b  923   4.886   4.324   4.732
  1011     A39c  924   4.923   4.107   4.802
  1011     A39d  925   4.979   4.068   4.718
  1011     A39e  926   4.818   4.067   4.811
  1011     A39f  927   4.778   4.111   5.064
  1011     A3a0  928   4.688   4.019   5.129
  1011     A3a1  929   4.713   3.918   5.170
  1011     A3a2  930   4.361   4.167   5.037
  1011     A3a3  931   4.308   4.058   5.105
  1011     A3a4  932   4.173   4.032   5.098
  1011     A3a5  933   4.144   3.941   5.140
  1011     A3a6  934   4.089   4.121   5.030
  1011     A3a7  935   3.942   4.148   4.971
  1011     A3a8  936   3.923   4.073   4.889
  1011     A3a9  937   4.011   4.275   4.901
  1011     A3aa  938   4.012   4.266   4.793
  1011     A3ab  939   3.921   4.393   4.942
  1011     A3ac  940   3.938   4.487   4.896
  1011     A3ad  941   3.923   4.402   5.097
  1011     A3ae  942   3.882   4.501   5.129
  1011     A3af  943   4.026   4.366   5.195
  1011     A3b0  944   3.954   4.258   0.817
  1011     A3b1  945   3.990   4.192   0.937
  1011     A3b2  946   3.917   4.072   0.995
  1011     A3b3  947   3.811   4.097   1.015
  1011     A3b4  948   3.931   3.980   0.928
  1011     A3b5  949   3.970   4.038   1.090
  1011     A3b6  950   4.113   4.240   0.987
  1011     A3b7  951   4.174   4.354   0.941
  1011     A3b8  952   4.136   4.428   0.826
  1011     A3b9  953   4.215   4.549   5.200
  1011     A3ba  954   4.289   4.529   5.129
  1011     A3bb  955   4.257   4.617   0.848
  1011     A3bc  956   4.144   4.612   5.134
  1011     A3bd  957   3.842   4.280   5.155
  1011     A3be  958   3.746   4.308   5.197
  1011     A3bf  959   3.812   4.192   5.034
  1011     A3c0  960   3.741   4.110   5.042
  1011     A3c1  961   3.785   4.312   4.935
  1011     A3c2  962   3.703   4.371   4.973
  1011     A3c3  963   3.768   4.269   4.834
  1011     A3c4  964   4.144   4.225   4.959
  1011     A3c5  965   4.277   4.254   4.965
  1011     A3c6  966   4.321   4.335   4.905
  1011     A3c7  967   1.788   3.745   4.404
  1011     A3c8  968   1.887   3.710   4.449
  1011     A3c9  969   1.781   3.848   4.378
  1011     A3ca  970   1.715   3.731   4.478
  1011     A3cb  971   1.731   3.646   4.298
  1011     A3cc  972   1.739   3.502   4.345
  1011     A3cd  973   1.842   3.473   4.389
  1011     A3ce  974   1.665   3.495   4.429
  1011     A3cf  975   1.710   3.436   4.265
  1011     A3d0  976   1.802   3.663   4.164
  1011     A3d1  977   1.708   3.733   4.081
  1011     A3d2  978   1.740   3.757   3.945
  1011     A3d3  979   1.672   3.809   3.881
  1011     A3d4  980   1.857   3.703   3.901
  1011     A3d5  981   1.934   3.681   3.771
  1011     A3d6  982   1.967   3.771   3.724
  1011     A3d7  983   2.039   3.600   3.862
  1011     A3d8  984   2.127   3.652   3.877
  1011     A3d9  985   2.048   3.454   3.808
  1011     A3da  986   2.087   3.367   3.864
  1011     A3db  987   2.123   3.477   3.672
  1011     A3dc  988   2.157   3.389   3.622
  1011     A3dd  989   2.010   3.555   3.584
  1011     A3de  990   1.988   3.498   3.490
  1011     A3df  991   1.884   3.566   3.674
  1011     A3e0  992   1.787   3.582   3.628
  1011     A3e1  993   1.897   3.432   3.760
  1011     A3e2  994   1.825   3.418   3.842
  1011     A3e3  995   1.892   3.341   3.699
  1011     A3e4  996   1.947   3.639   3.979
  1011     A3e5  997   1.925   3.614   4.116
  1011     A3e6  998   1.989   3.546   4.178
  1011     A3e7  999   1.579   3.747   4.150
  1011     A3e8 1000   1.585   3.681   4.279
  1011     A3e9 1001   1.459   3.662   4.351
  1011     A3ea 1002   1.438   3.593   4.432
  1011     A3eb 1003   1.346   3.709   4.297
  1011     A3ec 1004   1.195   3.689   4.316
  1011     A3ed 1005   1.159   3.756   4.394
  1011     A3ee 1006   1.193   3.751   4.171
  1011     A3ef 1007   1.149   3.850   4.168
  1011     A3f0 1008   1.117   3.645   4.081
  1011     A3f1 1009   1.121   3.648   3.974
  1011     A3f2 1010   0.979   3.655   4.134
  1011     A3f3 1011   0.913   3.604   4.056
  1011     A3f4 1012   0.913   3.775   4.189
  1011     A3f5 1013   0.903   3.726   4.319
  1011     A3f6 1014   0.823   3.778   4.419
  1011     A3f7 1015   0.796   3.722   4.561
  1011     A3f8 1016   5.117   3.696   4.559
  1011     A3f9 1017   0.824   3.802   4.632
  1011     A3fa 1018   0.850   3.626   4.588
  1011     A3fb 1019   5.201   3.898   4.371
  1011     A3fc 1020   0.787   3.956   4.246
  1011     A3fd 1021   0.859   3.897   4.143
  1011     A3fe 1022   0.848   3.939   3.997
  1011     A3ff 1023   0.883   4.043   3.985
  1011     A400 1024   0.907   3.871   3.929
  1011     A401 1025   5.176   3.927   3.947
  1011     A402 1026   0.970   3.595   4.283
  1011     A403 1027   0.902   3.514   4.300
  1011     A404 1028   1.120   3.553   4.299
  1011     A405 1029   1.132   3.481   4.386
  1011     A406 1030   1.160   3.512   4.149
  1011     A407 1031   1.094   3.434   4.114
  1011     A408 1032   1.261   3.487   4.134
  1011     A409 1033   1.344   3.765   4.177
  1011     A40a 1034   1.457   3.787   4.095
  1011     A40b 1035   1.457   3.814   3.994
  1011     A40c 1036   2.495   0.887   2.065
  1011     A40d 1037   2.410   0.825   2.021
  1011     A40e 1038   2.443   0.949   2.142
  1011     A40f 1039   2.543   0.951   1.992
  1011     A410 1040   2.613   0.805   2.124
  1011     A411 1041   2.578   5.101   2.192
  1011     A412 1042   2.543   5.033   2.116
  1011     A413 1043   2.664   5.064   2.250
  1011     A414 1044   2.502   5.120   2.271
  1011     A415 1045   2.681   0.889   2.239
  1011     A416 1046   2.818   0.896   2.204
  1011     A417 1047   2.918   0.939   2.293
  1011     A418 1048   3.022   0.926   2.271
  1011     A419 1049   2.871   0.992   2.413
  1011     A41a 1050   2.922   1.009   2.557
  1011     A41b 1051   2.974   1.110   2.570
  1011     A41c 1052   2.766   1.003   2.592
  1011     A41d 1053   2.711   1.092   2.628
  1011     A41e 1054   2.752   0.880   2.693
  1011     A41f 1055   2.663   0.819   2.710
  1011     A420 1056   2.814   0.946   2.816
  1011     A421 1057   2.752   1.037   2.850
  1011     A422 1058   2.966   0.966   2.796
  1011     A423 1059   3.007   1.073   2.799
  1011     A424 1060   2.990   0.905   2.645
  1011     A425 1061   3.091   0.863   2.623
  1011     A426 1062   2.877   0.791   2.643
  1011     A427 1063   2.887   5.140   2.719
  1011     A428 1064   2.854   5.180   2.544
  1011     A429 1065   2.739   0.983   2.445
  1011     A42a 1066   2.634   0.916   2.369
  1011     A42b 1067   2.546   0.879   2.413
  1011     A42c 1068   2.841   0.833   2.078
  1011     A42d 1069   2.725   5.203   2.029
  1011     A42e 1070   2.728   5.110   1.919
  1011     A42f 1071   2.647   5.034   1.909
  1011     A430 1072   2.847   5.092   1.848
  1011     A431 1073   2.932   4.960   1.829
  1011     A432 1074   2.909   4.897   1.918
  1011     A433 1075   3.056   5.051   1.845
  1011     A434 1076   3.115   5.024   1.927
  1011     A435 1077   3.148   5.023   1.716
  1011     A436 1078   3.255   5.046   1.717
  1011     A437 1079   3.070   5.068   1.585
  1011     A438 1080   3.139   5.041   1.511
  1011     A439 1081   2.987   5.191   1.546
  1011     A43a 1082   2.872   5.114   1.563
  1011     A43b 1083   2.751   5.159   1.511
  1011     A43c 1084   2.624   5.071   1.512
  1011     A43d 1085   2.547   5.139   1.530
  1011     A43e 1086   2.621   4.991   1.590
  1011     A43f 1087   2.635   5.009   1.417
  1011     A440 1088   2.760   0.842   1.434
  1011     A441 1089   2.883   0.896   1.396
  1011     A442 1090   3.005   0.857   1.446
  1011     A443 1091   3.137   0.893   1.376
  1011     A444 1092   3.157   0.997   1.352
  1011     A445 1093   3.223   0.866   1.437
  1011     A446 1094   3.155   0.845   1.282
  1011     A447 1095   2.943   4.979   1.581
  1011     A448 1096   2.936   4.918   1.486
  1011     A449 1097   2.957   4.874   1.701
  1011     A44a 1098   2.912   4.774   1.682
  1011     A44b 1099   3.115   4.871   1.717
  1011     A44c 1100   3.146   4.807   1.805
  1011     A44d 1101   3.158   4.822   1.632
  1011     A44e 1102   2.958   5.164   1.881
  1011     A44f 1103   2.959   0.811   2.002
  1011     A450 1104   3.056   0.844   2.041
  1011     A451 1105   2.686   3.932   4.421
  1011     A452 1106   2.649   4.036   4.412
  1011     A453 1107   2.779   3.928   4.360
  1011     A454 1108   2.610   3.872   4.368
  1011     A455 1109   2.689   3.880   4.571
  1011     A456 1110   2.641   3.732   4.563
  1011     A457 1111   2.699   3.667   4.500
  1011     A458 1112   2.642   3.680   4.657
  1011     A459 1113   2.539   3.719   4.522
  1011     A45a 1114   2.592   3.947   4.662
  1011     A45b 1115   2.636   3.952   4.795
  1011     A45c 1116   2.549   4.012   4.901
  1011     A45d 1117   2.572   4.019   5.009
  1011     A45e 1118   2.429   4.059   4.858
  1011     A45f 1119   2.296   4.121   4.902
  1011     A460 1120   2.312   4.228   4.929
  1011     A461 1121   2.257   4.118   4.749
  1011     A462 1122   2.250   4.216   4.702
  1011     A463 1123   2.125   4.048   4.724
  1011     A464 1124   2.099   4.002   4.626
  1011     A465 1125   2.030   4.146   4.798
  1011     A466 1126   2.028   4.252   4.767
  1011     A467 1127   2.051   4.133   4.959
  1011     A468 1128   2.056   4.230   5.008
  1011     A469 1129   2.176   4.043   4.968
  1011     A46a 1130   2.186   3.984   5.065
  1011     A46b 1131   2.142   3.947   4.851
  1011     A46c 1132   2.215   3.866   4.836
  1011     A46d 1133   2.052   3.888   4.870
  1011     A46e 1134   2.393   4.053   4.729
  1011     A46f 1135   2.467   4.001   4.625
  1011     A470 1136   2.436   4.011   4.524
  1011     A471 1137   2.779   3.912   4.790
  1011     A472 1138   2.819   3.886   4.654
  1011     A473 1139   2.956   3.852   4.619
  1011     A474 1140   2.986   3.812   4.522
  1011     A475 1141   3.049   3.892   4.721
  1011     A476 1142   3.197   3.854   4.753
  1011     A477 1143   3.202   3.751   4.733
  1011     A478 1144   3.152   3.894   4.904
  1011     A479 1145   3.139   3.814   4.973
  1011     A47a 1146   3.260   3.988   4.967
  1011     A47b 1147   3.274   4.003   5.078
  1011     A47c 1148   3.261   4.125   4.884
  1011     A47d 1149   3.324   4.195   4.938
  1011     A47e 1150   3.144   4.185   4.810
  1011     A47f 1151   3.192   4.173   4.687
  1011     A480 1152   3.109   4.191   4.572
  1011     A481 1153   3.134   4.138   4.427
  1011     A482 1154   3.070   4.191   4.355
  1011     A483 1155   3.104   4.034   4.424
  1011     A484 1156   3.240   4.150   4.411
  1011     A485 1157   2.984   4.246   4.602
  1011     A486 1158   2.941   4.264   4.729
  1011     A487 1159   3.017   4.243   4.843
  1011     A488 1160   2.958   4.259   4.979
  1011     A489 1161   2.873   4.187   4.990
  1011     A48a 1162   2.921   4.359   4.987
  1011     A48b 1163   3.025   4.237   5.066
  1011     A48c 1164   3.313   4.088   4.741
  1011     A48d 1165   3.411   4.135   4.722
  1011     A48e 1166   3.337   3.928   4.739
  1011     A48f 1167   3.406   3.905   4.665
  1011     A490 1168   3.383   3.917   4.890
  1011     A491 1169   3.482   3.969   4.899
  1011     A492 1170   3.403   3.815   4.926
  1011     A493 1171   3.012   3.911   4.853
  1011     A494 1172   2.872   3.929   4.896
  1011     A495 1173   2.859   3.952   5.004
  1011     A496 1174   4.152   1.972   1.538
  1011     A497 1175   4.118   1.917   1.628
  1011     A498 1176   4.060   1.976   1.473
  1011     A499 1177   4.237   1.911   1.505
  1011     A49a 1178   4.189   2.116   1.569
  1011     A49b 1179   4.305   2.132   1.680
  1011     A49c 1180   4.408   2.111   1.634
  1011     A49d 1181   4.292   2.064   1.771
  1011     A49e 1182   4.300   2.234   1.703
  1011     A49f 1183   4.064   2.199   1.605
  1011     A4a0 1184   4.022   2.269   1.491
  1011     A4a1 1185   3.898   2.332   1.491
  1011     A4a2 1186   3.854   2.391   1.415
  1011     A4a3 1187   3.831   2.334   1.610
  1011     A4a4 1188   3.708   2.388   1.688
  1011     A4a5 1189   3.620   2.329   1.654
  1011     A4a6 1190   3.782   2.333   1.811
  1011     A4a7 1191   3.733   2.245   1.858
  1011     A4a8 1192   3.800   2.464   1.903
  1011     A4a9 1193   3.884   2.468   1.977
  1011     A4aa 1194   3.650   2.490   1.952
  1011     A4ab 1195   3.609   2.406   2.004
  1011     A4ac 1196   3.567   2.528   1.823
  1011     A4ad 1197   3.484   2.463   1.802
  1011     A4ae 1198   3.670   2.535   1.705
  1011     A4af 1199   3.653   2.598   1.611
  1011     A4b0 1200   3.792   2.580   1.789
  1011     A4b1 1201   3.780   2.678   1.841
  1011     A4b2 1202   3.889   2.595   1.742
  1011     A4b3 1203   3.888   2.291   1.720
  1011     A4b4 1204   4.002   2.219   1.728
  1011     A4b5 1205   4.046   2.196   1.822
  1011     A4b6 1206   4.127   2.255   1.386
  1011     A4b7 1207   4.228   2.170   1.433
  1011     A4b8 1208   4.351   2.163   1.370
  1011     A4b9 1209   4.441   2.124   1.419
  1011     A4ba 1210   4.371   2.232   1.253
  1011     A4bb 1211   4.481   2.319   1.214
  1011     A4bc 1212   4.532   2.370   1.296
  1011     A4bd 1213   4.382   2.415   1.144
  1011     A4be 1214   4.369   2.506   1.200
  1011     A4bf 1215   4.438   2.451   0.996
  1011     A4c0 1216   4.397   2.536   0.939
  1011     A4c1 1217   4.432   2.317   0.914
  1011     A4c2 1218   4.480   2.333   0.817
  1011     A4c3 1219   4.327   2.208   0.913
  1011     A4c4 1220   4.401   2.117   0.983
  1011     A4c5 1221   4.392   1.978   0.975
  1011     A4c6 1222   4.492   1.889   1.044
  1011     A4c7 1223   4.476   1.788   1.030
  1011     A4c8 1224   4.484   1.896   1.150
  1011     A4c9 1225   4.601   1.909   1.021
  1011     A4ca 1226   4.298   1.936   0.880
  1011     A4cb 1227   4.241   2.027   0.798
  1011     A4cc 1228   4.245   2.164   0.807
  1011     A4cd 1229   4.203   2.260   5.129
  1011     A4ce 1230   4.103   2.238   5.089
  1011     A4cf 1231   4.199   2.367   5.155
  1011     A4d0 1232   4.268   2.266   5.045
  1011     A4d1 1233   4.522   2.211   0.988
  1011     A4d2 1234   4.592   2.161   0.920
  1011     A4d3 1235   4.590   2.288   1.109
  1011     A4d4 1236   4.689   2.264   1.149
  1011     A4d5 1237   4.596   2.433   1.036
  1011     A4d6 1238   4.664   2.434   0.954
  1011     A4d7 1239   4.625   2.513   1.103
  1011     A4d8 1240   4.271   2.310   1.191
  1011     A4d9 1241   4.142   2.328   1.264
  1011     A4da 1242   4.071   2.410   1.234
  1011     A4db 1243   2.318   2.617   1.558
  1011     A4dc 1244   2.330   2.718   1.606
  1011     A4dd 1245   2.244   2.606   1.481
  1011     A4de 1246   2.412   2.609   1.499
  1011     A4df 1247   2.306   2.506   1.674
  1011     A4e0 1248   2.270   2.384   1.598
  1011     A4e1 1249   2.248   2.301   1.662
  1011     A4e2 1250   2.182   2.405   1.539
  1011     A4e3 1251   2.356   2.364   1.531
  1011     A4e4 1252   2.200   2.544   1.782
  1011     A4e5 1253   2.262   2.521   1.911
  1011     A4e6 1254   2.204   2.565   2.032
  1011     A4e7 1255   2.244   2.552   2.127
  1011     A4e8 1256   2.078   2.642   2.017
  1011     A4e9 1257   1.996   2.749   2.086
  1011     A4ea 1258   2.071   2.821   2.132
  1011     A4eb 1259   1.955   2.786   1.939
  1011     A4ec 1260   2.005   2.871   1.898
  1011     A4ed 1261   1.799   2.797   1.932
  1011     A4ee 1262   1.747   2.779   1.842
  1011     A4ef 1263   1.776   2.926   2.017
  1011     A4f0 1264   1.835   3.012   1.989
  1011     A4f1 1265   1.803   2.882   2.167
  1011     A4f2 1266   1.872   2.957   2.212
  1011     A4f3 1267   1.861   2.734   2.158
  1011     A4f4 1268   1.854   2.666   2.241
  1011     A4f5 1269   1.768   2.688   2.041
  1011     A4f6 1270   1.668   2.690   2.072
  1011     A4f7 1271   1.794   2.590   2.014
  1011     A4f8 1272   2.029   2.664   1.893
  1011     A4f9 1273   2.088   2.624   1.773
  1011     A4fa 1274   2.059   2.659   1.672
  1011     A4fb 1275   2.398   2.468   1.892
  1011     A4fc 1276   2.436   2.474   1.755
  1011     A4fd 1277   2.567   2.435   1.712
  1011     A4fe 1278   2.610   2.440   1.614
  1011     A4ff 1279   2.647   2.392   1.821
  1011     A500 1280   2.787   2.332   1.834
  1011     A501 1281   2.805   2.233   1.787
  1011     A502 1282   2.748   2.323   1.987
  1011     A503 1283   2.723   2.222   2.015
  1011     A504 1284   2.868   2.373   2.072
  1011     A505 1285   2.882   2.335   2.173
  1011     A506 1286   2.870   2.525   2.048
  1011     A507 1287   2.936   2.572   2.114
  1011     A508 1288   2.756   2.618   1.998
  1011     A509 1289   2.813   2.639   1.877
  1011     A50a 1290   2.778   2.735   1.786
  1011     A50b 1291   2.848   2.749   1.659
  1011     A50c 1292   2.910   2.838   1.666
  1011     A50d 1293   2.779   2.753   1.573
  1011     A50e 1294   2.926   2.669   1.642
  1011     A50f 1295   2.662   2.807   1.834
  1011     A510 1296   2.598   2.785   1.954
  1011     A511 1297   2.643   2.690   2.046
  1011     A512 1298   2.580   2.667   2.184
  1011     A513 1299   2.645   2.614   2.257
  1011     A514 1300   2.541   2.756   2.240
  1011     A515 1301   2.480   2.626   2.160
  1011     A516 1302   2.918   2.535   1.890
  1011     A517 1303   3.025   2.575   1.893
  1011     A518 1304   2.927   2.396   1.828
  1011     A519 1305   2.982   2.394   1.736
  1011     A51a 1306   2.979   2.323   1.962
  1011     A51b 1307   2.996   2.217   1.954
  1011     A51c 1308   3.072   2.369   1.989
  1011     A51d 1309   2.609   2.386   1.946
  1011     A51e 1310   2.485   2.422   1.989
  1011     A51f 1311   2.451   2.414   2.090
  1011     A520 1312   4.894   2.003   4.050
  1011     A521 1313   4.881   1.901   4.057
  1011     A522 1314   4.934   2.039   3.957
  1011     A523 1315   4.791   2.044   4.040
  1011     A524 1316   4.951   2.069   4.181
  1011     A525 1317   4.842   2.054   4.293
  1011     A526 1318   4.741   2.084   4.264
  1011     A527 1319   4.832   1.952   4.328
  1011     A528 1320   4.871   2.116   4.376
  1011     A529 1321   4.987   2.218   4.164
  1011     A52a 1322   5.123   2.225   4.199
  1011     A52b 1323   5.190   2.351   4.219
  1011     A52c 1324   0.861   2.369   4.237
  1011     A52d 1325   5.112   2.457   4.184
  1011     A52e 1326   5.130   2.602   4.152
  1011     A52f 1327   5.189   2.624   4.067
  1011     A530 1328   4.975   2.600   4.114
  1011     A531 1329   4.959   2.629   4.014
  1011     A532 1330   4.909   2.712   4.206
  1011     A533 1331   4.808   2.689   4.221
  1011     A534 1332   4.961   2.840   4.136
  1011     A535 1333   4.940   2.846   4.029
  1011     A536 1334   5.118   2.840   4.168
  1011     A537 1335   5.188   2.836   4.084
  1011     A538 1336   5.145   2.717   4.261
  1011     A539 1337   0.805   2.715   4.329
  1011     A53a 1338   5.007   2.703   4.330
  1011     A53b 1339   4.996   2.786   4.407
  1011     A53c 1340   5.009   2.614   4.385
  1011     A53d 1341   4.982   2.453   4.144
  1011     A53e 1342   4.909   2.331   4.131
  1011     A53f 1343   4.810   2.322   4.100
  1011     A540 1344   5.180   2.097   4.226
  1011     A541 1345   5.083   1.994   4.221
  1011     A542 1346   5.098   1.859   4.265
  1011     A543 1347   5.023   1.783   4.271
  1011     A544 1348   0.807   1.829   4.295
  1011     A545 1349   0.887   1.737   4.387
  1011     A546 1350   0.845   1.738   4.485
  1011     A547 1351   0.999   1.850   4.375
  1011     A548 1352   1.014   1.892   4.478
  1011     A549 1353   1.132   1.788   4.335
  1011     A54a 1354   1.224   1.845   4.366
  1011     A54b 1355   1.113   1.727   4.191
  1011     A54c 1356   1.206   1.695   4.145
  1011     A54d 1357   1.009   1.758   4.082
  1011     A54e 1358   0.940   1.646   4.094
  1011     A54f 1359   0.822   1.617   4.022
  1011     A550 1360   5.169   1.488   4.041
  1011     A551 1361   5.067   1.515   4.008
  1011     A552 1362   5.174   1.447   4.140
  1011     A553 1363   5.213   1.414   3.972
  1011     A554 1364   5.213   1.716   3.936
  1011     A555 1365   0.853   1.832   3.919
  1011     A556 1366   0.976   1.858   3.986
  1011     A557 1367   1.072   1.972   3.958
  1011     A558 1368   1.125   2.006   4.050
  1011     A559 1369   1.025   2.055   3.904
  1011     A55a 1370   1.146   1.938   3.879
  1011     A55b 1371   1.016   1.603   4.207
  1011     A55c 1372   1.062   1.506   4.179
  1011     A55d 1373   0.958   1.602   4.357
  1011     A55e 1374   0.911   1.514   4.403
  1011     A55f 1375   1.105   1.642   4.409
  1011     A560 1376   1.192   1.577   4.391
  1011     A561 1377   1.107   1.636   4.517
  1011     A562 1378   0.900   1.927   4.295
  1011     A563 1379   0.887   2.065   4.257
  1011     A564 1380   0.970   2.133   4.259
  1011     A565 1381   1.318   1.769   1.666
  1011     A566 1382   1.346   1.861   1.610
  1011     A567 1383   1.218   1.757   1.648
  1011     A568 1384   1.353   1.786   1.774
  1011     A569 1385   1.408   1.652   1.611
  1011     A56a 1386   1.394   1.642   1.454
  1011     A56b 1387   1.308   1.579   1.427
  1011     A56c 1388   1.490   1.622   1.397
  1011     A56d 1389   1.367   1.746   1.423
  1011     A56e 1390   1.369   1.520   1.680
  1011     A56f 1391   1.498   1.469   1.717
  1011     A570 1392   1.497   1.346   1.777
  1011     A571 1393   1.586   1.295   1.809
  1011     A572 1394   1.369   1.294   1.806
  1011     A573 1395   1.306   1.184   1.883
  1011     A574 1396   1.352   1.183   1.982
  1011     A575 1397   1.166   1.260   1.868
  1011     A576 1398   1.123   1.318   1.955
  1011     A577 1399   1.054   1.155   1.832
  1011     A578 1400   0.955   1.199   1.796
  1011     A579 1401   1.056   1.063   1.954
  1011     A57a 1402   1.064   1.111   2.055
  1011     A57b 1403   1.199   0.982   1.942
  1011     A57c 1404   1.256   0.987   2.034
  1011     A57d 1405   1.276   1.040   1.822
  1011     A57e 1406   1.361   0.994   1.796
  1011     A57f 1407   1.152   1.071   1.728
  1011     A580 1408   1.188   1.122   1.635
  1011     A581 1409   1.101   0.987   1.683
  1011     A582 1410   1.254   1.346   1.777
  1011     A583 1411   1.241   1.465   1.702
  1011     A584 1412   1.153   1.527   1.693
  1011     A585 1413   1.609   1.561   1.711
  1011     A586 1414   1.564   1.678   1.639
  1011     A587 1415   1.643   1.793   1.619
  1011     A588 1416   1.605   1.882   1.567
  1011     A589 1417   1.768   1.782   1.682
  1011     A58a 1418   1.840   1.884   1.762
  1011     A58b 1419   1.767   1.966   1.787
  1011     A58c 1420   1.855   1.770   1.880
  1011     A58d 1421   1.787   1.792   1.964
  1011     A58e 1422   2.005   1.766   1.929
  1011     A58f 1423   2.033   1.676   1.980
  1011     A590 1424   2.013   1.904   1.998
  1011     A591 1425   2.099   1.914   2.070
  1011     A592 1426   1.903   1.992   2.054
  1011     A593 1427   1.922   2.097   1.963
  1011     A594 1428   1.878   2.228   1.969
  1011     A595 1429   1.927   2.341   1.876
  1011     A596 1430   1.916   2.432   1.934
  1011     A597 1431   1.882   2.350   1.785
  1011     A598 1432   2.040   2.336   1.874
  1011     A599 1433   1.784   2.232   2.077
  1011     A59a 1434   1.758   2.132   2.166
  1011     A59b 1435   1.819   2.005   2.164
  1011     A59c 1436   1.800   1.903   2.270
  1011     A59d 1437   1.752   1.807   2.232
  1011     A59e 1438   1.723   1.948   2.337
  1011     A59f 1439   1.900   1.887   2.328
  1011     A5a0 1440   2.024   2.015   1.883
  1011     A5a1 1441   2.121   2.062   1.879
  1011     A5a2 1442   1.984   1.931   1.750
  1011     A5a3 1443   2.018   1.981   1.657
  1011     A5a4 1444   2.072   1.802   1.794
  1011     A5a5 1445   2.059   1.727   1.718
  1011     A5a6 1446   2.170   1.837   1.795
  1011     A5a7 1447   1.787   1.679   1.784
  1011     A5a8 1448   1.715   1.568   1.801
  1011     A5a9 1449   1.721   1.496   1.886
  1011     A5aa 1450   1.986   4.435   2.369
  1011     A5ab 1451   2.037   4.338   2.349
  1011     A5ac 1452   2.023   4.474   2.468
  1011     A5ad 1453   2.020   4.510   2.292
  1011     A5ae 1454   1.828   4.416   2.351
  1011     A5af 1455   1.757   4.543   2.415
  1011     A5b0 1456   1.801   4.571   2.508
  1011     A5b1 1457   1.752   4.622   2.340
  1011     A5b2 1458   1.656   4.526   2.440
  1011     A5b3 1459   1.787   4.283   2.408
  1011     A5b4 1460   1.738   4.197   2.307
  1011     A5b5 1461   1.714   4.057   2.326
  1011     A5b6 1462   1.684   3.991   2.241
  1011     A5b7 1463   1.744   4.020   2.458
  1011     A5b8 1464   1.777   3.886   2.531
  1011     A5b9 1465   1.875   3.836   2.498
  1011     A5ba 1466   1.801   3.988   2.653
  1011     A5bb 1467   1.903   3.985   2.694
  1011     A5bc 1468   1.706   3.944   2.767
  1011     A5bd 1469   1.689   4.013   2.848
  1011     A5be 1470   1.767   3.805   2.805
  1011     A5bf 1471   1.871   3.818   2.834
  1011     A5c0 1472   1.728   3.704   2.683
  1011     A5c1 1473   1.812   3.646   2.637
  1011     A5c2 1474   1.656   3.794   2.584
  1011     A5c3 1475   1.600   3.735   2.512
  1011     A5c4 1476   1.582   3.900   2.685
  1011     A5c5 1477   1.504   3.839   2.734
  1011     A5c6 1478   1.518   3.977   2.632
  1011     A5c7 1479   1.781   4.104   2.559
  1011     A5c8 1480   1.802   4.241   2.544
  1011     A5c9 1481   1.829   4.306   2.623
  1011     A5ca 1482   1.727   4.278   2.185
  1011     A5cb 1483   1.786   4.403   2.203
  1011     A5cc 1484   1.817   4.495   2.094
  1011     A5cd 1485   1.861   4.590   2.104
  1011     A5ce 1486   1.761   4.447   1.978
  1011     A5cf 1487   1.759   4.488   1.833
  1011     A5d0 1488   1.707   4.588   1.828
  1011     A5d1 1489   1.663   4.358   1.818
  1011     A5d2 1490   1.560   4.383   1.796
  1011     A5d3 1491   1.707   4.277   1.692
  1011     A5d4 1492   1.627   4.219   1.645
  1011     A5d5 1493   1.846   4.217   1.723
  1011     A5d6 1494   1.867   4.158   1.644
  1011     A5d7 1495   1.893   4.173   1.863
  1011     A5d8 1496   1.978   4.284   1.881
  1011     A5d9 1497   2.094   4.282   1.962
  1011     A5da 1498   2.205   4.383   1.963
  1011     A5db 1499   2.298   4.332   1.997
  1011     A5dc 1500   2.165   4.456   2.034
  1011     A5dd 1501   2.212   4.424   1.861
  1011     A5de 1502   2.104   4.162   2.035
  1011     A5df 1503   2.021   4.053   2.017
  1011     A5e0 1504   1.923   4.048   1.924
  1011     A5e1 1505   1.861   3.918   1.875
  1011     A5e2 1506   1.791   3.930   1.795
  1011     A5e3 1507   1.822   3.862   1.963
  1011     A5e4 1508   1.947   3.862   1.836
  1011     A5e5 1509   1.948   4.346   1.741
  1011     A5e6 1510   2.046   4.347   1.683
  1011     A5e7 1511   1.858   4.469   1.708
  1011     A5e8 1512   1.907   4.555   1.666
  1011     A5e9 1513   1.761   4.396   1.608
  1011     A5ea 1514   1.684   4.455   1.555
  1011     A5eb 1515   1.815   4.346   1.525
  1011     A5ec 1516   1.680   4.340   1.965
  1011     A5ed 1517   1.665   4.242   2.063
  1011     A5ee 1518   1.631   4.141   2.059
  1011     A5ef 1519   3.436   1.767   2.829
  1011     A5f0 1520   3.344   1.765   2.786
  1011     A5f1 1521   3.461   1.661   2.834
  1011     A5f2 1522   3.429   1.817   2.929
  1011     A5f3 1523   3.528   1.835   2.722
  1011     A5f4 1524   3.563   1.732   2.617
  1011     A5f5 1525   3.466   1.692   2.576
  1011     A5f6 1526   3.610   1.782   2.538
  1011     A5f7 1527   3.633   1.645   2.645
  1011     A5f8 1528   3.657   1.903   2.785
  1011     A5f9 1529   3.653   2.044   2.772
  1011     A5fa 1530   3.773   2.117   2.796
  1011     A5fb 1531   3.784   2.219   2.762
  1011     A5fc 1532   3.868   2.049   2.872
  1011     A5fd 1533   4.023   2.067   2.887
  1011     A5fe 1534   4.046   2.115   2.989
  1011     A5ff 1535   4.021   1.907   2.892
  1011     A600 1536   4.051   1.853   2.986
  1011     A601 1537   4.109   1.864   2.766
  1011     A602 1538   4.102   1.769   2.716
  1011     A603 1539   4.248   1.902   2.815
  1011     A604 1540   4.276   1.856   2.912
  1011     A605 1541   4.261   2.063   2.821
  1011     A606 1542   4.282   2.090   2.932
  1011     A607 1543   4.122   2.111   2.773
  1011     A608 1544   4.105   2.219   2.751
  1011     A609 1545   4.080   1.987   2.678
  1011     A60a 1546   4.148   1.983   2.587
  1011     A60b 1547   3.979   1.989   2.656
  1011     A60c 1548   3.870   1.911   2.887
  1011     A60d 1549   3.766   1.835   2.832
  1011     A60e 1550   3.770   1.732   2.822
  1011     A60f 1551   3.534   2.073   2.693
  1011     A610 1552   3.467   1.956   2.649
  1011     A611 1553   3.371   1.970   2.550
  1011     A612 1554   3.330   1.871   2.507
  1011     A613 1555   3.359   2.093   2.484
  1011     A614 1556   3.411   2.116   2.350
  1011     A615 1557   3.487   2.036   2.329
  1011     A616 1558   3.473   2.249   2.391
  1011     A617 1559   3.582   2.254   2.396
  1011     A618 1560   3.430   2.353   2.286
  1011     A619 1561   3.497   2.437   2.254
  1011     A61a 1562   3.277   2.379   2.291
  1011     A61b 1563   3.246   2.438   2.212
  1011     A61c 1564   3.194   2.402   2.411
  1011     A61d 1565   3.142   2.269   2.404
  1011     A61e 1566   3.013   2.234   2.447
  1011     A61f 1567   2.940   2.116   2.381
  1011     A620 1568   2.862   2.085   2.451
  1011     A621 1569   3.010   2.034   2.356
  1011     A622 1570   2.880   2.141   2.292
  1011     A623 1571   2.941   2.346   2.499
  1011     A624 1572   2.985   2.476   2.475
  1011     A625 1573   3.108   2.508   2.428
  1011     A626 1574   3.140   2.643   2.370
  1011     A627 1575   3.141   2.637   2.262
  1011     A628 1576   3.241   2.666   2.410
  1011     A629 1577   3.078   2.720   2.409
  1011     A62a 1578   3.211   2.239   2.273
  1011     A62b 1579   3.136   2.229   2.190
  1011     A62c 1580   3.321   2.135   2.226
  1011     A62d 1581   3.278   2.052   2.170
  1011     A62e 1582   3.423   2.239   2.166
  1011     A62f 1583   3.391   2.276   2.074
  1011     A630 1584   3.516   2.190   2.144
  1011     A631 1585   3.420   2.205   2.528
  1011     A632 1586   3.513   2.197   2.637
  1011     A633 1587   3.573   2.281   2.654
  1011     A634 1588   1.965   5.130   3.847
  1011     A635 1589   2.011   0.794   3.872
  1011     A636 1590   2.032   5.074   3.792
  1011     A637 1591   1.938   5.074   3.940
  1011     A638 1592   1.830   5.154   3.773
  1011     A639 1593   1.721   5.206   3.872
  1011     A63a 1594   1.705   5.145   3.962
  1011     A63b 1595   1.621   0.792   3.819
  1011     A63c 1596   1.739   0.883   3.903
  1011     A63d 1597   1.783   5.010   3.726
  1011     A63e 1598   1.750   5.031   3.593
  1011     A63f 1599   1.681   4.929   3.515
  1011     A640 1600   1.638   4.950   3.410
  1011     A641 1601   1.658   4.809   3.593
  1011     A642 1602   1.587   4.671   3.583
  1011     A643 1603   1.641   4.597   3.514
  1011     A644 1604   1.644   4.651   3.739
  1011     A645 1605   1.730   4.578   3.746
  1011     A646 1606   1.521   4.605   3.817
  1011     A647 1607   1.527   4.613   3.924
  1011     A648 1608   1.487   4.474   3.744
  1011     A649 1609   1.578   4.408   3.737
  1011     A64a 1610   1.423   4.501   3.601
  1011     A64b 1611   1.473   4.453   3.521
  1011     A64c 1612   1.432   4.653   3.589
  1011     A64d 1613   1.369   4.705   3.512
  1011     A64e 1614   1.415   4.702   3.746
  1011     A64f 1615   1.432   4.805   3.762
  1011     A650 1616   1.315   4.680   3.775
  1011     A651 1617   1.690   4.793   3.723
  1011     A652 1618   1.758   4.891   3.797
  1011     A653 1619   1.774   4.880   3.904
  1011     A654 1620   1.795   5.162   3.543
  1011     A655 1621   1.843   0.816   3.651
  1011     A656 1622   1.896   0.946   3.633
  1011     A657 1623   1.922   1.010   3.714
  1011     A658 1624   1.901   0.984   3.498
  1011     A659 1625   1.923   1.111   3.411
  1011     A65a 1626   1.858   1.200   3.418
  1011     A65b 1627   1.871   1.020   3.290
  1011     A65c 1628   1.776   1.051   3.255
  1011     A65d 1629   1.979   1.030   3.176
  1011     A65e 1630   1.953   1.014   3.067
  1011     A65f 1631   2.111   0.963   3.227
  1011     A660 1632   2.179   0.955   3.145
  1011     A661 1633   2.143   0.856   3.330
  1011     A662 1634   2.195   0.947   3.412
  1011     A663 1635   2.253   0.917   3.535
  1011     A664 1636   2.318   1.017   3.625
  1011     A665 1637   2.418   0.991   3.671
  1011     A666 1638   2.339   1.110   3.573
  1011     A667 1639   2.245   1.041   3.705
  1011     A668 1640   2.252   5.208   3.557
  1011     A669 1641   2.196   5.116   3.473
  1011     A66a 1642   2.134   5.150   3.350
  1011     A66b 1643   2.078   5.057   3.244
  1011     A66c 1644   2.156   4.981   3.225
  1011     A66d 1645   2.062   5.104   3.148
  1011     A66e 1646   1.985   5.009   3.278
  1011     A66f 1647   2.169   1.067   3.330
  1011     A670 1648   2.259   1.122   3.294
  1011     A671 1649   2.057   1.178   3.357
  1011     A672 1650   2.076   1.277   3.396
  1011     A673 1651   2.019   1.184   3.206
  1011     A674 1652   1.939   1.258   3.187
  1011     A675 1653   2.097   1.210   3.137
  1011     A676 1654   1.849   0.915   3.390
  1011     A677 1655   1.802   5.212   3.407
  1011     A678 1656   1.761   5.158   3.328
  1011     A679 1657   1.374   2.371   4.548
  1011     A67a 1658   1.277   2.318   4.533
  1011     A67b 1659   1.428   2.352   4.647
  1011     A67c 1660   1.443   2.333   4.468
  1011     A67d 1661   1.362   2.525   4.546
  1011     A67e 1662   1.505   2.583   4.566
  1011     A67f 1663   1.538   2.569   4.664
  1011     A680 1664   1.508   2.683   4.532
  1011     A681 1665   1.575   2.534   4.498
  1011     A682 1666   1.259   2.586   4.649
  1011     A683 1667   1.166   2.667   4.573
  1011     A684 1668   1.062   2.733   4.637
  1011     A685 1669   0.992   2.781   4.576
  1011     A686 1670   1.064   2.723   4.776
  1011     A687 1671   0.994   2.777   4.893
  1011     A688 1672   0.891   2.741   4.891
  1011     A689 1673   1.097   2.684   4.978
  1011     A68a 1674   1.038   2.600   5.019
  1011     A68b 1675   1.156   2.786   5.081
  1011     A68c 1676   1.252   2.771   5.129
  1011     A68d 1677   1.033   2.806   5.175
  1011     A68e 1678   0.993   2.713   5.209
  1011     A68f 1679   0.932   2.898   5.092
  1011     A690 1680   0.843   2.842   5.073
  1011     A691 1681   0.997   2.920   4.956
  1011     A692 1682   0.958   3.008   4.897
  1011     A693 1683   1.147   2.921   5.007
  1011     A694 1684   1.219   2.931   4.916
  1011     A695 1685   1.165   3.008   5.066
  1011     A696 1686   1.151   2.648   4.845
  1011     A697 1687   1.257   2.582   4.792
  1011     A698 1688   1.342   2.528   4.851
  1011     A699 1689   1.199   2.654   4.431
  1011     A69a 1690   1.311   2.573   4.411
  1011     A69b 1691   1.369   2.548   4.285
  1011     A69c 1692   1.456   2.487   4.273
  1011     A69d 1693   1.295   2.604   4.187
  1011     A69e 1694   1.311   2.634   4.035
  1011     A69f 1695   1.313   2.539   3.978
  1011     A6a0 1696   1.165   2.707   4.051
  1011     A6a1 1697   1.070   2.660   4.007
  1011     A6a2 1698   1.181   2.845   3.988
  1011     A6a3 1699   1.111   2.919   4.012
  1011     A6a4 1700   1.198   2.814   3.842
  1011     A6a5 1701   1.184   2.900   3.785
  1011     A6a6 1702   1.141   2.689   3.763
  1011     A6a7 1703   1.263   2.626   3.759
  1011     A6a8 1704   1.280   2.496   3.692
  1011     A6a9 1705   1.410   2.421   3.694
  1011     A6aa 1706   1.494   2.485   3.722
  1011     A6ab 1707   1.429   2.372   3.597
  1011     A6ac 1708   1.409   2.346   3.775
  1011     A6ad 1709   1.156   2.440   3.661
  1011     A6ae 1710   1.037   2.511   3.667
  1011     A6af 1711   1.018   2.636   3.719
  1011     A6b0 1712   0.881   2.694   3.747
  1011     A6b1 1713   0.830   2.749   3.658
  1011     A6b2 1714   0.817   2.609   3.770
  1011     A6b3 1715   0.880   2.760   3.835
  1011     A6b4 1716   1.338   2.739   3.825
  1011     A6b5 1717   1.394   2.786   3.739
  1011     A6b6 1718   1.404   2.742   3.969
  1011     A6b7 1719   1.511   2.735   3.968
  1011     A6b8 1720   1.334   2.878   4.019
  1011     A6b9 1721   1.366   2.955   3.949
  1011     A6ba 1722   1.360   2.896   4.124
  1011     A6bb 1723   1.178   2.674   4.202
  1011     A6bc 1724   1.125   2.706   4.327
  1011     A6bd 1725   1.036   2.767   4.339
  1011     A6be 1726   3.199   3.079   3.351
  1011     A6bf 1727   3.197   3.190   3.353
  1011     A6c0 1728   3.107   3.025   3.358
  1011     A6c1 1729   3.267   3.045   3.435
  1011     A6c2 1730   3.251   3.028   3.215
  1011     A6c3 1731   3.158   3.081   3.099
  1011     A6c4 1732   3.058   3.046   3.121
  1011     A6c5 1733   3.180   3.047   2.994
  1011     A6c6 1734   3.134   3.185   3.103
  1011     A6c7 1735   3.254   2.876   3.198
  1011     A6c8 1736   3.380   2.848   3.147
  1011     A6c9 1737   3.410   2.709   3.119
  1011     A6ca 1738   3.504   2.667   3.076
  1011     A6cb 1739   3.309   2.619   3.141
  1011     A6cc 1740   3.285   2.474   3.141
  1011     A6cd 1741   3.363   2.430   3.204
  1011     A6ce 1742   3.148   2.504   3.227
  1011     A6cf 1743   3.139   2.472   3.330
  1011     A6d0 1744   3.032   2.448   3.150
  1011     A6d1 1745   2.936   2.491   3.178
  1011     A6d2 1746   3.050   2.294   3.171
  1011     A6d3 1747   3.055   2.273   3.277
  1011     A6d4 1748   3.182   2.255   3.089
  1011     A6d5 1749   3.250   2.209   3.160
  1011     A6d6 1750   3.236   2.387   3.024
  1011     A6d7 1751   3.305   2.377   2.937
  1011     A6d8 1752   3.093   2.450   3.001
  1011     A6d9 1753   3.041   2.385   2.935
  1011     A6da 1754   3.101   2.549   2.953
  1011     A6db 1755   3.194   2.649   3.209
  1011     A6dc 1756   3.152   2.785   3.231
  1011     A6dd 1757   3.050   2.811   3.270
  1011     A6de 1758   3.464   2.964   3.142
  1011     A6df 1759   3.397   3.077   3.202
  1011     A6e0 1760   3.452   3.211   3.218
  1011     A6e1 1761   3.391   3.297   3.247
  1011     A6e2 1762   3.586   3.214   3.192
  1011     A6e3 1763   3.703   3.310   3.193
  1011     A6e4 1764   3.685   3.389   3.126
  1011     A6e5 1765   3.788   3.192   3.125
  1011     A6e6 1766   3.795   3.208   3.016
  1011     A6e7 1767   3.927   3.190   3.192
  1011     A6e8 1768   4.014   3.163   3.128
  1011     A6e9 1769   3.902   3.144   3.338
  1011     A6ea 1770   4.000   3.140   3.385
  1011     A6eb 1771   3.812   3.039   3.397
  1011     A6ec 1772   3.727   3.130   3.460
  1011     A6ed 1773   3.601   3.093   3.516
  1011     A6ee 1774   3.512   3.195   3.579
  1011     A6ef 1775   3.418   3.200   3.522
  1011     A6f0 1776   3.545   3.300   3.570
  1011     A6f1 1777   3.493   3.164   3.684
  1011     A6f2 1778   3.573   2.959   3.491
  1011     A6f3 1779   3.663   2.865   3.436
  1011     A6f4 1780   3.781   2.906   3.367
  1011     A6f5 1781   3.864   2.811   3.276
  1011     A6f6 1782   3.813   2.711   3.253
  1011     A6f7 1783   3.874   2.848   3.176
  1011     A6f8 1784   3.965   2.793   3.322
  1011     A6f9 1785   3.812   3.248   3.421
  1011     A6fa 1786   3.845   3.276   3.517
  1011     A6fb 1787   3.789   3.366   3.315
  1011     A6fc 1788   3.766   3.462   3.354
  1011     A6fd 1789   3.941   3.348   3.233
  1011     A6fe 1790   3.966   3.415   3.152
  1011     A6ff 1791   4.028   3.359   3.300
  1011     A700 1792   3.662   3.106   3.141
  1011     A701 1793   3.605   2.975   3.115
  1011     A702 1794   3.664   2.891   3.070
  1011     A703 1795   1.810   4.206   3.697
  1011     A704 1796   1.917   4.195   3.700
  1011     A705 1797   1.773   4.143   3.784
  1011     A706 1798   1.769   4.310   3.710
  1011     A707 1799   1.761   4.142   3.566
  1011     A708 1800   1.836   4.013   3.546
  1011     A709 1801   1.779   3.947   3.484
  1011     A70a 1802   1.850   3.964   3.642
  1011     A70b 1803   1.930   4.045   3.507
  1011     A70c 1804   1.773   4.248   3.446
  1011     A70d 1805   1.647   4.261   3.388
  1011     A70e 1806   1.628   4.369   3.297
  1011     A70f 1807   1.524   4.399   3.275
  1011     A710 1808   1.732   4.448   3.260
  1011     A711 1809   1.769   4.587   3.219
  1011     A712 1810   1.718   4.661   3.286
  1011     A713 1811   1.913   4.545   3.270
  1011     A714 1812   1.940   4.593   3.363
  1011     A715 1813   2.014   4.568   3.142
  1011     A716 1814   2.106   4.518   3.140
  1011     A717 1815   2.017   4.724   3.134
  1011     A718 1816   2.051   4.760   3.235
  1011     A719 1817   1.870   4.774   3.109
  1011     A71a 1818   1.837   4.833   3.200
  1011     A71b 1819   1.782   4.642   3.075
  1011     A71c 1820   1.693   4.660   3.017
  1011     A71d 1821   1.899   4.547   3.024
  1011     A71e 1822   1.943   4.565   2.928
  1011     A71f 1823   1.870   4.435   3.013
  1011     A720 1824   1.856   4.416   3.314
  1011     A721 1825   1.888   4.324   3.410
  1011     A722 1826   1.981   4.321   3.466
  1011     A723 1827   1.551   4.179   3.459
  1011     A724 1828   1.617   4.110   3.565
  1011     A725 1829   1.548   4.023   3.656
  1011     A726 1830   1.611   3.973   3.727
  1011     A727 1831   1.414   4.009   3.628
  1011     A728 1832   1.306   3.906   3.656
  1011     A729 1833   1.343   3.802   3.638
  1011     A72a 1834   1.234   3.956   3.522
  1011     A72b 1835   1.254   3.877   3.444
  1011     A72c 1836   1.081   3.978   3.563
  1011     A72d 1837   1.002   3.974   3.497
  1011     A72e 1838   1.085   4.098   3.673
  1011     A72f 1839   0.985   4.127   3.701
  1011     A730 1840   1.173   4.225   3.674
  1011     A731 1841   1.236   4.193   3.794
  1011     A732 1842   1.340   4.266   3.855
  1011     A733 1843   1.401   4.228   3.989
  1011     A734 1844   1.331   4.198   4.067
  1011     A735 1845   1.469   4.143   3.958
  1011     A736 1846   1.466   4.308   4.035
  1011     A737 1847   1.372   4.381   3.777
  1011     A738 1848   1.309   4.410   3.654
  1011     A739 1849   1.207   4.330   3.596
  1011     A73a 1850   1.149   4.344   3.461
  1011     A73b 1851   1.149   4.239   3.416
  1011     A73c 1852   1.049   4.385   3.461
  1011     A73d 1853   1.207   4.410   3.402
  1011     A73e 1854   1.166   4.056   3.798
  1011     A73f 1855   1.101   4.058   3.890
  1011     A740 1856   1.199   3.910   3.765
  1011     A741 1857   1.211   3.840   3.845
  1011     A742 1858   1.077   3.867   3.672
  1011     A743 1859   0.973   3.852   3.713
  1011     A744 1860   1.106   3.769   3.626
  1011     A745 1861   1.350   4.057   3.520
  1011     A746 1862   1.413   4.155   3.433
  1011     A747 1863   1.368   4.193   3.335
  1011     A748 1864   1.975   2.419   3.917
  1011     A749 1865   2.058   2.347   3.889
  1011     A74a 1866   2.014   2.521   3.896
  1011     A74b 1867   1.987   2.421   4.026
  1011     A74c 1868   1.836   2.372   3.873
  1011     A74d 1869   1.740   2.471   3.953
  1011     A74e 1870   1.777   2.471   4.057
  1011     A74f 1871   1.731   2.570   3.908
  1011     A750 1872   1.636   2.426   3.957
  1011     A751 1873   1.805   2.226   3.911
  1011     A752 1874   1.729   2.177   3.805
  1011     A753 1875   1.660   2.053   3.804
  1011     A754 1876   1.602   2.008   3.718
  1011     A755 1877   1.672   1.985   3.926
  1011     A756 1878   1.648   1.849   3.996
  1011     A757 1879   1.705   1.767   3.943
  1011     A758 1880   1.736   1.911   4.112
  1011     A759 1881   1.835   1.864   4.121
  1011     A75a 1882   1.648   1.909   4.237
  1011     A75b 1883   1.670   1.977   4.318
  1011     A75c 1884   1.654   1.754   4.272
  1011     A75d 1885   1.761   1.720   4.267
  1011     A75e 1886   1.572   1.680   4.159
  1011     A75f 1887   1.639   1.613   4.106
  1011     A760 1888   1.508   1.792   4.060
  1011     A761 1889   1.420   1.777   3.992
  1011     A762 1890   1.500   1.904   4.180
  1011     A763 1891   1.413   1.876   4.243
  1011     A764 1892   1.470   2.003   4.134
  1011     A765 1893   1.743   2.035   4.029
  1011     A766 1894   1.809   2.159   4.036
  1011     A767 1895   1.862   2.198   4.120
  1011     A768 1896   1.739   2.272   3.690
  1011     A769 1897   1.809   2.390   3.722
  1011     A76a 1898   1.850   2.484   3.626
  1011     A76b 1899   1.905   2.571   3.651
  1011     A76c 1900   1.809   2.460   3.496
  1011     A76d 1901   1.814   2.517   3.355
  1011     A76e 1902   1.749   2.606   3.340
  1011     A76f 1903   1.731   2.386   3.319
  1011     A770 1904   1.624   2.406   3.294
  1011     A771 1905   1.805   2.324   3.194
  1011     A772 1906   1.754   2.268   3.115
  1011     A773 1907   1.938   2.259   3.241
  1011     A774 1908   1.987   2.204   3.156
  1011     A775 1909   1.970   2.187   3.369
  1011     A776 1910   2.042   2.296   3.419
  1011     A777 1911   2.117   2.287   3.546
  1011     A778 1912   2.229   2.379   3.594
  1011     A779 1913   2.323   2.343   3.543
  1011     A77a 1914   2.212   2.481   3.548
  1011     A77b 1915   2.241   2.377   3.706
  1011     A77c 1916   2.089   2.167   3.609
  1011     A77d 1917   2.009   2.070   3.563
  1011     A77e 1918   1.950   2.070   3.434
  1011     A77f 1919   1.879   1.954   3.381
  1011     A780 1920   1.846   1.976   3.281
  1011     A781 1921   1.945   1.866   3.380
  1011     A782 1922   1.790   1.931   3.443
  1011     A783 1923   2.027   2.386   3.290
  1011     A784 1924   2.118   2.397   3.236
  1011     A785 1925   1.940   2.511   3.259
  1011     A786 1926   1.993   2.610   3.254
  1011     A787 1927   1.876   2.449   3.134
  1011     A788 1928   1.810   2.529   3.099
  1011     A789 1929   1.946   2.428   3.055
  1011     A78a 1930   1.726   2.353   3.465
  1011     A78b 1931   1.698   2.248   3.557
  1011     A78c 1932   1.649   2.150   3.522
  1011     A78d 1933   4.463   2.679   2.076
  1011     A78e 1934   4.496   2.632   1.978
  1011     A78f 1935   4.533   2.761   2.097
  1011     A790 1936   4.361   2.714   2.070
  1011     A791 1937   4.489   2.575   2.183
  1011     A792 1938   4.629   2.517   2.161
  1011     A793 1939   4.634   2.429   2.224
  1011     A794 1940   4.659   2.496   2.059
  1011     A795 1941   4.712   2.585   2.186
  1011     A796 1942   4.386   2.470   2.173
  1011     A797 1943   4.313   2.478   2.297
  1011     A798 1944   4.208   2.378   2.327
  1011     A799 1945   4.165   2.368   2.425
  1011     A79a 1946   4.184   2.292   2.219
  1011     A79b 1947   4.116   2.157   2.198
  1011     A79c 1948   4.014   2.173   2.165
  1011     A79d 1949   4.223   2.133   2.089
  1011     A79e 1950   4.193   2.124   1.987
  1011     A79f 1951   4.289   1.999   2.134
  1011     A7a0 1952   4.394   1.996   2.104
  1011     A7a1 1953   4.185   1.891   2.110
  1011     A7a2 1954   4.169   1.883   2.000
  1011     A7a3 1955   4.070   1.921   2.211
  1011     A7a4 1956   3.970   1.940   2.164
  1011     A7a5 1957   4.119   2.042   2.302
  1011     A7a6 1958   4.081   2.048   2.400
  1011     A7a7 1959   4.271   2.006   2.295
  1011     A7a8 1960   4.294   1.920   2.349
  1011     A7a9 1961   4.336   2.087   2.339
  1011     A7aa 1962   4.270   2.274   2.112
  1011     A7ab 1963   4.374   2.359   2.079
  1011     A7ac 1964   4.437   2.338   2.000
  1011     A7ad 1965   4.375   2.574   2.388
  1011     A7ae 1966   4.475   2.651   2.316
  1011     A7af 1967   4.577   2.721   2.386
  1011     A7b0 1968   4.679   2.752   2.338
  1011     A7b1 1969   4.553   2.741   2.522
  1011     A7b2 1970   4.641   2.762   2.648
  1011     A7b3 1971   4.733   2.704   2.645
  1011     A7b4 1972   4.524   2.693   2.730
  1011     A7b5 1973   4.552   2.592   2.765
  1011     A7b6 1974   4.516   2.783   2.863
  1011     A7b7 1975   4.480   2.747   2.959
  1011     A7b8 1976   4.458   2.920   2.819
  1011     A7b9 1977   4.424   2.985   2.906
  1011     A7ba 1978   4.351   2.938   2.709
  1011     A7bb 1979   4.447   2.986   2.617
  1011     A7bc 1980   4.417   3.073   2.513
  1011     A7bd 1981   4.526   3.150   2.433
  1011     A7be 1982   4.556   3.231   2.492
  1011     A7bf 1983   4.484   3.194   2.343
  1011     A7c0 1984   4.614   3.090   2.411
  1011     A7c1 1985   4.280   3.094   2.495
  1011     A7c2 1986   4.188   3.062   2.593
  1011     A7c3 1987   4.226   2.990   2.711
  1011     A7c4 1988   4.140   3.003   2.834
  1011     A7c5 1989   4.035   3.003   2.811
  1011     A7c6 1990   4.151   3.097   2.884
  1011     A7c7 1991   4.153   2.908   2.897
  1011     A7c8 1992   4.556   2.986   2.718
  1011     A7c9 1993   4.597   3.084   2.740
  1011     A7ca 1994   4.678   2.898   2.719
  1011     A7cb 1995   4.775   2.942   2.689
  1011     A7cc 1996   4.668   2.831   2.866
  1011     A7cd 1997   4.739   2.747   2.880
  1011     A7ce 1998   4.689   2.903   2.947
  1011     A7cf 1999   4.452   2.685   2.591
  1011     A7d0 2000   4.368   2.597   2.526
  1011     A7d1 2001   4.289   2.548   2.585
  1011     A7d2 2002   2.580   2.549   3.276
  1011     A7d3 2003   2.604   2.449   3.303
  1011     A7d4 2004   2.546   2.595   3.369
  1011     A7d5 2005   2.679   2.595   3.258
  1011     A7d6 2006   2.488   2.562   3.156
  1011     A7d7 2007   2.389   2.437   3.160
  1011     A7d8 2008   2.442   2.348   3.115
  1011     A7d9 2009   2.293   2.461   3.110
  1011     A7da 2010   2.368   2.404   3.265
  1011     A7db 2011   2.567   2.560   3.025
  1011     A7dc 2012   2.571   2.694   2.983
  1011     A7dd 2013   2.659   2.731   2.877
  1011     A7de 2014   2.660   2.834   2.841
  1011     A7df 2015   2.734   2.624   2.811
  1011     A7e0 2016   2.804   2.586   2.679
  1011     A7e1 2017   2.909   2.616   2.704
  1011     A7e2 2018   2.777   2.440   2.719
  1011     A7e3 2019   2.859   2.376   2.740
  1011     A7e4 2020   2.690   2.389   2.596
  1011     A7e5 2021   2.613   2.313   2.606
  1011     A7e6 2022   2.795   2.374   2.483
  1011     A7e7 2023   2.763   2.313   2.396
  1011     A7e8 2024   2.843   2.530   2.448
  1011     A7e9 2025   2.822   2.547   2.343
  1011     A7ea 2026   2.746   2.617   2.538
  1011     A7eb 2027   2.722   2.721   2.512
  1011     A7ec 2028   2.620   2.527   2.553
  1011     A7ed 2029   2.552   2.557   2.633
  1011     A7ee 2030   2.555   2.529   2.463
  1011     A7ef 2031   2.711   2.494   2.843
  1011     A7f0 2032   2.636   2.455   2.955
  1011     A7f1 2033   2.620   2.353   2.982
  1011     A7f2 2034   2.471   2.777   3.061
  1011     A7f3 2035   2.415   2.698   3.161
  1011     A7f4 2036   2.298   2.738   3.237
  1011     A7f5 2037   2.248   2.678   3.310
  1011     A7f6 2038   2.250   2.862   3.197
  1011     A7f7 2039   2.111   2.920   3.180
  1011     A7f8 2040   2.041   2.832   3.149
  1011     A7f9 2041   2.169   3.015   3.066
  1011     A7fa 2042   2.124   2.978   2.969
  1011     A7fb 2043   2.110   3.151   3.096
  1011     A7fc 2044   2.108   3.216   3.007
  1011     A7fd 2045   2.170   3.211   3.236
  1011     A7fe 2046   2.138   3.312   3.248
  1011     A7ff 2047   2.305   3.190   3.296
  1011     A800 2048   2.260   3.095   3.384
  1011     A801 2049   2.342   3.019   3.468
  1011     A802 2050   2.293   2.912   3.557
  1011     A803 2051   2.337   2.932   3.649
  1011     A804 2052   2.330   2.819   3.521
  1011     A805 2053   2.185   2.898   3.561
  1011     A806 2054   2.480   3.045   3.439
  1011     A807 2055   2.522   3.138   3.343
  1011     A808 2056   2.441   3.208   3.257
  1011     A809 2057   2.495   3.307   3.158
  1011     A80a 2058   2.528   3.249   3.070
  1011     A80b 2059   2.411   3.374   3.139
  1011     A80c 2060   2.576   3.373   3.197
  1011     A80d 2061   2.114   3.109   3.349
  1011     A80e 2062   2.054   3.164   3.432
  1011     A80f 2063   2.026   3.014   3.271
  1011     A810 2064   1.968   2.958   3.340
  1011     A811 2065   1.978   3.106   3.151
  1011     A812 2066   1.904   3.182   3.183
  1011     A813 2067   1.922   3.053   3.080
  1011     A814 2068   2.305   2.945   3.096
  1011     A815 2069   2.419   2.903   3.024
  1011     A816 2070   2.452   2.953   2.932
  1011     A817 2071   2.275   4.712   4.123
  1011     A818 2072   2.196   4.645   4.151
  1011     A819 2073   2.341   4.652   4.057
  1011     A81a 2074   2.232   4.787   4.067
  1011     A81b 2075   2.352   4.762   4.254
  1011     A81c 2076   2.465   4.853   4.223
  1011     A81d 2077   2.531   4.826   4.142
  1011     A81e 2078   2.428   4.952   4.191
  1011     A81f 2079   2.528   4.869   4.311
  1011     A820 2080   2.406   4.644   4.338
  1011     A821 2081   2.364   4.667   4.471
  1011     A822 2082   2.415   4.584   4.579
  1011     A823 2083   2.385   4.594   4.680
  1011     A824 2084   2.511   4.485   4.536
  1011     A825 2085   2.604   4.390   4.597
  1011     A826 2086   2.546   4.319   4.654
  1011     A827 2087   2.651   4.360   4.446
  1011     A828 2088   2.614   4.264   4.405
  1011     A829 2089   2.804   4.390   4.444
  1011     A82a 2090   2.839   4.396   4.344
  1011     A82b 2091   2.849   4.265   4.536
  1011     A82c 2092   2.812   4.173   4.484
  1011     A82d 2093   2.799   4.294   4.690
  1011     A82e 2094   2.726   4.220   4.726
  1011     A82f 2095   2.735   4.437   4.672
  1011     A830 2096   2.718   4.510   4.755
  1011     A831 2097   2.820   4.499   4.545
  1011     A832 2098   2.923   4.522   4.565
  1011     A833 2099   2.778   4.591   4.512
  1011     A834 2100   2.542   4.458   4.407
  1011     A835 2101   2.492   4.537   4.298
  1011     A836 2102   2.531   4.514   4.196
  1011     A837 2103   2.270   4.775   4.479
  1011     A838 2104   2.252   4.841   4.351
  1011     A839 2105   2.157   4.952   4.338
  1011     A83a 2106   2.143   5.011   4.247
  1011     A83b 2107   2.100   4.990   4.465
  1011     A83c 2108   1.993   5.083   4.523
  1011     A83d 2109   2.021   5.185   4.545
  1011     A83e 2110   2.011   5.006   4.662
  1011     A83f 2111   2.060   5.073   4.736
  1011     A840 2112   1.876   4.966   4.704
  1011     A841 2113   1.874   4.947   4.810
  1011     A842 2114   1.823   4.851   4.608
  1011     A843 2115   1.728   4.827   4.654
  1011     A844 2116   1.885   4.737   4.528
  1011     A845 2117   1.873   4.805   4.406
  1011     A846 2118   1.864   4.735   4.283
  1011     A847 2119   1.813   4.787   4.152
  1011     A848 2120   1.812   4.893   4.165
  1011     A849 2121   1.711   4.750   4.131
  1011     A84a 2122   1.868   4.758   4.063
  1011     A84b 2123   1.892   4.599   4.300
  1011     A84c 2124   1.910   4.533   4.427
  1011     A84d 2125   1.900   4.598   4.548
  1011     A84e 2126   1.874   4.529   4.674
  1011     A84f 2127   1.837   4.424   4.671
  1011     A850 2128   1.966   4.530   4.731
  1011     A851 2129   1.796   4.583   4.735
  1011     A852 2130   1.795   4.920   4.475
  1011     A853 2131   1.695   4.917   4.429
  1011     A854 2132   1.841   5.075   4.494
  1011     A855 2133   1.804   5.160   4.429
  1011     A856 2134   1.802   5.093   4.643
  1011     A857 2135   1.693   5.099   4.663
  1011     A858 2136   1.839   5.188   4.686
  1011     A859 2137   2.118   4.930   4.587
  1011     A85a 2138   2.192   4.813   4.592
  1011     A85b 2139   2.205   4.750   4.679
  1011     A85c 2140   1.385   4.570   1.912
  1011     A85d 2141   1.415   4.622   1.823
  1011     A85e 2142   1.392   4.636   1.996
  1011     A85f 2143   1.456   4.484   1.933
  1011     A860 2144   1.239   4.514   1.898
  1011     A861 2145   1.189   4.474   2.047
  1011     A862 2146   1.108   4.402   2.040
  1011     A863 2147   1.160   4.566   2.106
  1011     A864 2148   1.270   4.431   2.105
  1011     A865 2149   1.222   4.390   1.807
  1011     A866 2150   1.115   4.422   1.723
  1011     A867 2151   1.087   4.339   1.612
  1011     A868 2152   1.021   4.375   1.531
  1011     A869 2153   1.172   4.228   1.601
  1011     A86a 2154   1.241   4.151   1.495
  1011     A86b 2155   1.288   4.236   1.441
  1011     A86c 2156   1.343   4.096   1.597
  1011     A86d 2157   1.446   4.121   1.599
  1011     A86e 2158   1.326   3.946   1.583
  1011     A86f 2159   1.368   3.888   1.670
  1011     A870 2160   1.405   3.931   1.446
  1011     A871 2161   1.503   3.977   1.461
  1011     A872 2162   1.314   3.994   1.338
  1011     A873 2163   1.368   4.075   1.288
  1011     A874 2164   1.180   4.034   1.412
  1011     A875 2165   1.100   4.044   1.345
  1011     A876 2166   1.176   3.927   1.528
  1011     A877 2167   1.105   3.949   1.606
  1011     A878 2168   1.163   3.824   1.487
  1011     A879 2169   1.267   4.189   1.692
  1011     A87a 2170   1.301   4.270   1.802
  1011     A87b 2171   1.396   4.253   1.856
  1011     A87c 2172   1.068   4.555   1.748
  1011     A87d 2173   1.146   4.626   1.844
  1011     A87e 2174   1.134   4.765   1.868
  1011     A87f 2175   1.195   4.825   1.933
  1011     A880 2176   1.037   4.825   1.788
  1011     A881 2177   0.967   4.957   1.772
  1011     A882 2178   0.928   4.994   1.866
  1011     A883 2179   0.861   4.880   1.691
  1011     A884 2180   5.197   4.872   1.742
  1011     A885 2181   0.823   4.953   1.559
  1011     A886 2182   5.159   4.935   1.517
  1011     A887 2183   0.946   4.939   1.473
  1011     A888 2184   0.927   4.990   1.385
  1011     A889 2185   1.049   4.828   1.455
  1011     A88a 2186   1.152   4.906   1.509
  1011     A88b 2187   1.284   4.870   1.490
  1011     A88c 2188   1.405   4.955   1.523
  1011     A88d 2189   1.405   5.050   1.465
  1011     A88e 2190   1.394   5.007   1.625
  1011     A88f 2191   1.496   4.897   1.537
  1011     A890 2192   1.300   4.738   1.437
  1011     A891 2193   1.194   4.665   1.402
  1011     A892 2194   1.063   4.713   1.386
  1011     A893 2195   0.945   4.640   1.336
  1011     A894 2196   0.851   4.687   1.351
  1011     A895 2197   0.938   4.547   1.391
  1011     A896 2198   0.968   4.610   1.233
  1011     A897 2199   1.060   5.022   1.543
  1011     A898 2200   1.097   5.117   1.493
  1011     A899 2201   0.997   5.076   1.677
  1011     A89a 2202   1.045   5.169   1.714
  1011     A89b 2203   0.848   5.102   1.617
  1011     A89c 2204   5.204   5.119   1.693
  1011     A89d 2205   0.850   5.194   1.551
  1011     A89e 2206   0.948   4.754   1.712
  1011     A89f 2207   0.958   4.620   1.688
  1011     A8a0 2208   0.891   4.570   1.621
  1011     A8a1 2209   4.041   4.185   4.037
  1011     A8a2 2210   3.960   4.120   4.057
  1011     A8a3 2211   4.111   4.199   4.115
  1011     A8a4 2212   3.988   4.279   4.024
  1011     A8a5 2213   4.112   4.135   3.905
  1011     A8a6 2214   4.176   3.995   3.919
  1011     A8a7 2215   4.217   3.960   3.826
  1011     A8a8 2216   4.094   3.927   3.950
  1011     A8a9 2217   4.251   3.987   4.001
  1011     A8aa 2218   4.219   4.241   3.868
  1011     A8ab 2219   4.178   4.305   3.753
  1011     A8ac 2220   4.253   4.415   3.697
  1011     A8ad 2221   4.243   4.444   3.586
  1011     A8ae 2222   4.365   4.449   3.769
  1011     A8af 2223   4.491   4.532   3.759
  1011     A8b0 2224   4.466   4.639   3.776
  1011     A8b1 2225   4.544   4.439   3.876
  1011     A8b2 2226   4.559   4.492   3.966
  1011     A8b3 2227   4.671   4.367   3.827
  1011     A8b4 2228   4.701   4.278   3.881
  1011     A8b5 2229   4.771   4.487   3.826
  1011     A8b6 2230   4.760   4.535   3.924
  1011     A8b7 2231   4.731   4.578   3.707
  1011     A8b8 2232   4.718   4.679   3.743
  1011     A8b9 2233   4.599   4.504   3.645
  1011     A8ba 2234   4.576   4.511   3.536
  1011     A8bb 2235   4.634   4.352   3.672
  1011     A8bc 2236   4.564   4.275   3.648
  1011     A8bd 2237   4.720   4.324   3.617
  1011     A8be 2238   4.406   4.377   3.875
  1011     A8bf 2239   4.340   4.267   3.935
  1011     A8c0 2240   4.366   4.205   4.019
  1011     A8c1 2241   4.062   4.237   3.704
  1011     A8c2 2242   4.015   4.139   3.789
  1011     A8c3 2243   3.889   4.062   3.769
  1011     A8c4 2244   3.848   3.994   3.836
  1011     A8c5 2245   3.832   4.099   3.648
  1011     A8c6 2246   3.697   4.069   3.575
  1011     A8c7 2247   3.685   3.962   3.547
  1011     A8c8 2248   3.758   4.175   3.475
  1011     A8c9 2249   3.790   4.130   3.383
  1011     A8ca 2250   3.637   4.276   3.445
  1011     A8cb 2251   3.648   4.324   3.346
  1011     A8cc 2252   3.608   4.365   3.571
  1011     A8cd 2253   3.532   4.443   3.550
  1011     A8ce 2254   3.707   4.414   3.667
  1011     A8cf 2255   3.664   4.330   3.765
  1011     A8d0 2256   3.682   4.348   3.904
  1011     A8d1 2257   3.592   4.275   4.006
  1011     A8d2 2258   3.625   4.173   4.017
  1011     A8d3 2259   3.596   4.321   4.104
  1011     A8d4 2260   3.492   4.281   3.959
  1011     A8d5 2261   3.748   4.459   3.934
  1011     A8d6 2262   3.792   4.550   3.837
  1011     A8d7 2263   3.766   4.537   3.701
  1011     A8d8 2264   3.772   4.666   3.610
  1011     A8d9 2265   3.682   4.716   3.622
  1011     A8da 2266   3.856   4.730   3.634
  1011     A8db 2267   3.774   4.624   3.505
  1011     A8dc 2268   3.560   4.256   3.679
  1011     A8dd 2269   3.457   4.273   3.718
  1011     A8de 2270   3.549   4.121   3.606
  1011     A8df 2271   3.484   4.050   3.652
  1011     A8e0 2272   3.522   4.174   3.451
  1011     A8e1 2273   3.427   4.216   3.436
  1011     A8e2 2274   3.523   4.101   3.381
  1011     A8e3 2275   3.873   4.194   3.561
  1011     A8e4 2276   3.997   4.264   3.581
  1011     A8e5 2277   4.044   4.330   3.509
  1011     A8e6 2278   4.653   4.921   2.948
  1011     A8e7 2279   4.600   4.867   2.873
  1011     A8e8 2280   4.583   4.934   3.030
  1011     A8e9 2281   4.681   5.019   2.909
  1011     A8ea 2282   4.774   4.829   3.005
  1011     A8eb 2283   4.714   4.707   3.075
  1011     A8ec 2284   4.791   4.640   3.119
  1011     A8ed 2285   4.667   4.635   2.999
  1011     A8ee 2286   4.646   4.722   3.160
  1011     A8ef 2287   4.865   4.917   3.091
  1011     A8f0 2288   4.988   4.942   3.016
  1011     A8f1 2289   5.102   4.995   3.082
  1011     A8f2 2290   5.203   4.986   3.035
  1011     A8f3 2291   5.086   5.027   3.214
  1011     A8f4 2292   5.167   5.034   3.350
  1011     A8f5 2293   0.797   5.135   3.351
  1011     A8f6 2294   5.021   5.031   3.412
  1011     A8f7 2295   5.000   5.131   3.456
  1011     A8f8 2296   5.027   4.912   3.516
  1011     A8f9 2297   4.932   4.859   3.549
  1011     A8fa 2298   5.127   4.970   3.619
  1011     A8fb 2299   5.091   5.063   3.655
  1011     A8fc 2300   0.847   4.969   3.552
  1011     A8fd 2301   0.880   5.075   3.550
  1011     A8fe 2302   0.820   4.915   3.410
  1011     A8ff 2303   0.902   4.869   3.351
  1011     A900 2304   5.133   4.819   3.445
  1011     A901 2305   5.170   4.734   3.509
  1011     A902 2306   5.094   4.772   3.352
  1011     A903 2307   4.965   5.019   3.272
  1011     A904 2308   4.848   4.963   3.221
  1011     A905 2309   4.757   4.935   3.270
  1011     A906 2310   4.984   4.868   2.894
  1011     A907 2311   4.868   4.786   2.895
  1011     A908 2312   4.844   4.695   2.790
  1011     A909 2313   4.753   4.635   2.781
  1011     A90a 2314   4.949   4.686   2.698
  1011     A90b 2315   5.004   4.590   2.590
  1011     A90c 2316   5.037   4.496   2.645
  1011     A90d 2317   5.126   4.693   2.582
  1011     A90e 2318   0.787   4.655   2.629
  1011     A90f 2319   5.150   4.729   2.427
  1011     A910 2320   0.824   4.758   2.405
  1011     A911 2321   5.022   4.804   2.375
  1011     A912 2322   5.034   4.848   2.274
  1011     A913 2323   4.919   4.900   2.432
  1011     A914 2324   4.820   4.805   2.449
  1011     A915 2325   4.684   4.836   2.458
  1011     A916 2326   4.570   4.737   2.445
  1011     A917 2327   4.538   4.682   2.540
  1011     A918 2328   4.492   4.784   2.386
  1011     A919 2329   4.609   4.661   2.370
  1011     A91a 2330   4.657   4.972   2.477
  1011     A91b 2331   4.756   5.067   2.449
  1011     A91c 2332   4.887   5.033   2.421
  1011     A91d 2333   4.987   5.138   2.374
  1011     A91e 2334   5.033   5.097   2.285
  1011     A91f 2335   5.066   5.152   2.450
  1011     A920 2336   4.934   0.805   2.353
  1011     A921 2337   4.908   4.697   2.380
  1011     A922 2338   4.873   4.677   2.277
  1011     A923 2339   4.964   4.569   2.440
  1011     A924 2340   4.912   4.475   2.426
  1011     A925 2341   5.107   4.589   2.372
  1011     A926 2342   5.177   4.507   2.406
  1011     A927 2343   5.116   4.561   2.265
  1011     A928 2344   5.049   4.774   2.685
  1011     A929 2345   5.076   4.871   2.790
  1011     A92a 2346   5.169   4.926   2.783
  1011     A92b 2347   2.556   2.841   4.197
  1011     A92c 2348   2.474   2.850   4.265
  1011     A92d 2349   2.575   2.730   4.197
  1011     A92e 2350   2.647   2.879   4.247
  1011     A92f 2351   2.532   2.893   4.054
  1011     A930 2352   2.568   3.048   4.054
  1011     A931 2353   2.524   3.097   4.142
  1011     A932 2354   2.545   3.102   3.965
  1011     A933 2355   2.672   3.059   4.074
  1011     A934 2356   2.390   2.877   4.020
  1011     A935 2357   2.378   2.792   3.908
  1011     A936 2358   2.256   2.765   3.840
  1011     A937 2359   2.248   2.687   3.767
  1011     A938 2360   2.148   2.827   3.903
  1011     A939 2361   1.999   2.839   3.893
  1011     A93a 2362   1.946   2.745   3.897
  1011     A93b 2363   2.008   2.929   4.031
  1011     A93c 2364   1.973   2.870   4.120
  1011     A93d 2365   1.936   3.065   4.001
  1011     A93e 2366   1.965   3.145   4.065
  1011     A93f 2367   1.786   3.007   3.996
  1011     A940 2368   1.758   2.950   4.076
  1011     A941 2369   1.782   2.933   3.848
  1011     A942 2370   1.737   2.831   3.854
  1011     A943 2371   1.929   2.933   3.790
  1011     A944 2372   1.933   2.923   3.674
  1011     A945 2373   1.967   3.077   3.845
  1011     A946 2374   2.068   3.107   3.812
  1011     A947 2375   1.904   3.158   3.801
  1011     A948 2376   2.161   2.905   4.018
  1011     A949 2377   2.279   2.937   4.085
  1011     A94a 2378   2.277   2.995   4.177
  1011     A94b 2379   2.509   2.765   3.856
  1011     A94c 2380   2.605   2.835   3.937
  1011     A94d 2381   2.749   2.825   3.910
  1011     A94e 2382   2.825   2.871   3.976
  1011     A94f 2383   2.776   2.743   3.800
  1011     A950 2384   2.899   2.698   3.725
  1011     A951 2385   2.939   2.785   3.669
  1011     A952 2386   2.794   2.611   3.634
  1011     A953 2387   2.779   2.660   3.536
  1011     A954 2388   2.859   2.470   3.609
  1011     A955 2389   2.835   2.404   3.526
  1011     A956 2390   2.871   2.395   3.742
  1011     A957 2391   2.899   2.294   3.730
  1011     A958 2392   2.772   2.400   3.863
  1011     A959 2393   2.839   2.491   3.936
  1011     A95a 2394   2.809   2.519   4.068
  1011     A95b 2395   2.892   2.615   4.153
  1011     A95c 2396   2.843   2.713   4.146
  1011     A95d 2397   2.917   2.588   4.257
  1011     A95e 2398   2.982   2.634   4.099
  1011     A95f 2399   2.704   2.436   4.119
  1011     A960 2400   2.638   2.344   4.045
  1011     A961 2401   2.671   2.309   3.910
  1011     A962 2402   2.611   2.192   3.828
  1011     A963 2403   2.524   2.238   3.775
  1011     A964 2404   2.687   2.153   3.764
  1011     A965 2405   2.585   2.114   3.895
  1011     A966 2406   2.956   2.489   3.840
  1011     A967 2407   3.043   2.434   3.890
  1011     A968 2408   3.017   2.603   3.754
  1011     A969 2409   3.119   2.635   3.789
  1011     A96a 2410   3.014   2.528   3.618
  1011     A96b 2411   3.088   2.447   3.614
  1011     A96c 2412   3.033   2.597   3.536
  1011     A96d 2413   2.684   2.668   3.731
  1011     A96e 2414   2.545   2.679   3.747
  1011     A96f 2415   2.466   2.643   3.690
  1011     A970 2416   3.874   2.932   1.549
  1011     A971 2417   3.924   2.852   1.598
  1011     A972 2418   3.944   2.951   1.463
  1011     A973 2419   3.773   2.893   1.511
  1011     A974 2420   3.860   3.056   1.640
  1011     A975 2421   3.795   3.174   1.556
  1011     A976 2422   3.701   3.150   1.510
  1011     A977 2423   3.767   3.265   1.625
  1011     A978 2424   3.857   3.214   1.472
  1011     A979 2425   3.996   3.102   1.693
  1011     A97a 2426   3.999   3.090   1.834
  1011     A97b 2427   4.092   3.173   1.907
  1011     A97c 2428   4.069   3.200   2.008
  1011     A97d 2429   4.185   3.246   1.832
  1011     A97e 2430   4.234   3.390   1.828
  1011     A97f 2431   4.319   3.404   1.896
  1011     A980 2432   4.253   3.371   1.672
  1011     A981 2433   4.351   3.371   1.628
  1011     A982 2434   4.159   3.477   1.606
  1011     A983 2435   4.136   3.453   1.505
  1011     A984 2436   4.239   3.606   1.638
  1011     A985 2437   4.338   3.599   1.603
  1011     A986 2438   4.236   3.626   1.795
  1011     A987 2439   4.327   3.626   1.852
  1011     A988 2440   4.137   3.515   1.842
  1011     A989 2441   4.090   3.527   1.937
  1011     A98a 2442   4.043   3.495   1.716
  1011     A98b 2443   3.969   3.419   1.737
  1011     A98c 2444   3.970   3.571   1.668
  1011     A98d 2445   4.195   3.235   1.693
  1011     A98e 2446   4.103   3.157   1.621
  1011     A98f 2447   4.095   3.180   1.515
  1011     A990 2448   3.868   3.047   1.877
  1011     A991 2449   3.779   3.031   1.769
  1011     A992 2450   3.633   3.038   1.785
  1011     A993 2451   3.563   3.048   1.703
  1011     A994 2452   3.592   3.030   1.921
  1011     A995 2453   3.491   3.116   2.003
  1011     A996 2454   3.495   3.215   1.983
  1011     A997 2455   3.590   3.099   2.122
  1011     A998 2456   3.638   3.190   2.142
  1011     A999 2457   3.497   3.043   2.240
  1011     A99a 2458   3.549   3.054   2.334
  1011     A99b 2459   3.439   2.903   2.196
  1011     A99c 2460   3.403   2.856   2.283
  1011     A99d 2461   3.500   2.800   2.113
  1011     A99e 2462   3.414   2.821   2.004
  1011     A99f 2463   3.420   2.746   1.889
  1011     A9a0 2464   3.335   2.779   1.770
  1011     A9a1 2465   3.227   2.748   1.784
  1011     A9a2 2466   3.361   2.736   1.678
  1011     A9a3 2467   3.326   2.888   1.756
  1011     A9a4 2468   3.515   2.644   1.897
  1011     A9a5 2469   3.588   2.615   2.009
  1011     A9a6 2470   3.598   2.701   2.125
  1011     A9a7 2471   3.685   2.679   2.246
  1011     A9a8 2472   3.623   2.712   2.333
  1011     A9a9 2473   3.716   2.577   2.259
  1011     A9aa 2474   3.780   2.745   2.240
  1011     A9ab 2475   3.336   2.931   2.074
  1011     A9ac 2476   3.234   2.908   2.095
  1011     A9ad 2477   3.348   3.085   2.058
  1011     A9ae 2478   3.266   3.136   2.006
  1011     A9af 2479   3.370   3.132   2.212
  1011     A9b0 2480   3.283   3.116   2.274
  1011     A9b1 2481   3.392   3.238   2.212
  1011     A9b2 2482   3.679   3.022   2.020
  1011     A9b3 2483   3.816   3.038   2.005
  1011     A9b4 2484   3.880   3.055   2.092
  1011     A9b5 2485   2.011   1.670   4.368
  1011     A9b6 2486   2.087   1.670   4.444
  1011     A9b7 2487   1.927   1.728   4.396
  1011     A9b8 2488   2.058   1.732   4.291
  1011     A9b9 2489   1.980   1.530   4.328
  1011     A9ba 2490   2.112   1.449   4.321
  1011     A9bb 2491   2.159   1.444   4.422
  1011     A9bc 2492   2.092   1.347   4.281
  1011     A9bd 2493   2.179   1.500   4.255
  1011     A9be 2494   1.930   1.516   4.175
  1011     A9bf 2495   1.832   1.415   4.180
  1011     A9c0 2496   1.758   1.375   4.059
  1011     A9c1 2497   1.684   1.304   4.062
  1011     A9c2 2498   1.805   1.438   3.944
  1011     A9c3 2499   1.778   1.456   3.803
  1011     A9c4 2500   1.676   1.484   3.793
  1011     A9c5 2501   1.884   1.571   3.799
  1011     A9c6 2502   1.847   1.674   3.789
  1011     A9c7 2503   1.979   1.526   3.686
  1011     A9c8 2504   2.080   1.575   3.679
  1011     A9c9 2505   1.896   1.556   3.550
  1011     A9ca 2506   1.956   1.555   3.461
  1011     A9cb 2507   1.795   1.423   3.547
  1011     A9cc 2508   1.686   1.437   3.533
  1011     A9cd 2509   1.824   1.356   3.688
  1011     A9ce 2510   1.806   1.247   3.692
  1011     A9cf 2511   1.979   1.373   3.700
  1011     A9d0 2512   2.024   1.331   3.794
  1011     A9d1 2513   2.030   1.324   3.625
  1011     A9d2 2514   1.899   1.541   3.947
  1011     A9d3 2515   1.971   1.583   4.056
  1011     A9d4 2516   2.051   1.655   4.056
  1011     A9d5 2517   1.807   1.369   4.310
  1011     A9d6 2518   1.875   1.455   4.406
  1011     A9d7 2519   1.834   1.458   4.546
  1011     A9d8 2520   1.871   1.543   4.605
  1011     A9d9 2521   1.738   1.358   4.579
  1011     A9da 2522   1.638   1.311   4.691
  1011     A9db 2523   1.700   1.269   4.766
  1011     A9dc 2524   1.567   1.221   4.586
  1011     A9dd 2525   1.600   1.121   4.604
  1011     A9de 2526   1.415   1.242   4.613
  1011     A9df 2527   1.341   1.162   4.585
  1011     A9e0 2528   1.378   1.383   4.562
  1011     A9e1 2529   1.273   1.390   4.569
  1011     A9e2 2530   1.442   1.468   4.457
  1011     A9e3 2531   1.504   1.552   4.544
  1011     A9e4 2532   1.583   1.662   4.517
  1011     A9e5 2533   1.658   1.753   4.612
  1011     A9e6 2534   1.636   1.725   4.720
  1011     A9e7 2535   1.770   1.750   4.601
  1011     A9e8 2536   1.629   1.855   4.595
  1011     A9e9 2537   1.574   1.678   4.377
  1011     A9ea 2538   1.518   1.599   4.285
  1011     A9eb 2539   1.440   1.485   4.313
  1011     A9ec 2540   1.360   1.403   4.221
  1011     A9ed 2541   1.385   1.298   4.242
  1011     A9ee 2542   1.373   1.416   4.113
  1011     A9ef 2543   1.258   1.420   4.254
  1011     A9f0 2544   1.451   1.478   4.669
  1011     A9f1 2545   1.374   1.537   4.730
  1011     A9f2 2546   1.530   1.385   4.766
  1011     A9f3 2547   1.559   1.438   4.851
  1011     A9f4 2548   1.421   1.267   4.763
  1011     A9f5 2549   1.332   1.307   4.812
  1011     A9f6 2550   1.455   1.173   4.813
  1011     A9f7 2551   1.671   1.277   4.488
  1011     A9f8 2552   1.697   1.281   4.349
  1011     A9f9 2553   1.639   1.209   4.288
  1011     A9fa 2554   2.985   2.047   3.497
  1011     A9fb 2555   3.006   2.080   3.598
  1011     A9fc 2556   2.975   2.136   3.437
  1011     A9fd 2557   2.883   2.010   3.503
  1011     A9fe 2558   3.072   1.933   3.443
  1011     A9ff 2559   3.066   1.831   3.554
  1011     Aa00 2560   2.973   1.777   3.564
  1011     Aa01 2561   3.075   1.871   3.658
  1011     Aa02 2562   3.144   1.758   3.547
  1011     Aa03 2563   3.216   1.977   3.413
  1011     Aa04 2564   3.255   1.907   3.289
  1011     Aa05 2565   3.390   1.890   3.259
  1011     Aa06 2566   3.427   1.829   3.175
  1011     Aa07 2567   3.475   1.958   3.345
  1011     Aa08 2568   3.613   1.937   3.386
  1011     Aa09 2569   3.683   1.983   3.322
  1011     Aa0a 2570   3.579   2.023   3.519
  1011     Aa0b 2571   3.619   2.126   3.518
  1011     Aa0c 2572   3.613   1.930   3.638
  1011     Aa0d 2573   3.562   1.951   3.728
  1011     Aa0e 2574   3.763   1.936   3.625
  1011     Aa0f 2575   3.783   2.045   3.613
  1011     Aa10 2576   3.803   1.845   3.498
  1011     Aa11 2577   3.862   1.905   3.430
  1011     Aa12 2578   3.665   1.803   3.436
  1011     Aa13 2579   3.658   1.723   3.368
  1011     Aa14 2580   3.593   1.792   3.575
  1011     Aa15 2581   3.642   1.710   3.622
  1011     Aa16 2582   3.487   1.774   3.563
  1011     Aa17 2583   3.438   2.024   3.458
  1011     Aa18 2584   3.308   2.028   3.504
  1011     Aa19 2585   3.271   2.054   3.605
  1011     Aa1a 2586   3.141   1.848   3.226
  1011     Aa1b 2587   3.028   1.869   3.307
  1011     Aa1c 2588   2.901   1.831   3.258
  1011     Aa1d 2589   2.798   1.841   3.306
  1011     Aa1e 2590   2.902   1.776   3.130
  1011     Aa1f 2591   2.806   1.724   3.020
  1011     Aa20 2592   2.757   1.630   3.056
  1011     Aa21 2593   2.941   1.700   2.934
  1011     Aa22 2594   2.967   1.593   2.924
  1011     Aa23 2595   2.906   1.757   2.793
  1011     Aa24 2596   2.958   1.711   2.711
  1011     Aa25 2597   2.890   1.916   2.808
  1011     Aa26 2598   2.884   1.963   2.713
  1011     Aa27 2599   2.968   2.005   2.901
  1011     Aa28 2600   2.859   2.023   2.985
  1011     Aa29 2601   2.858   2.114   3.087
  1011     Aa2a 2602   2.726   2.148   3.153
  1011     Aa2b 2603   2.709   2.258   3.166
  1011     Aa2c 2604   2.643   2.124   3.083
  1011     Aa2d 2605   2.721   2.093   3.246
  1011     Aa2e 2606   2.984   2.184   3.099
  1011     Aa2f 2607   3.095   2.152   3.022
  1011     Aa30 2608   3.095   2.063   2.922
  1011     Aa31 2609   3.219   2.068   2.835
  1011     Aa32 2610   3.223   2.147   2.754
  1011     Aa33 2611   3.247   1.969   2.798
  1011     Aa34 2612   3.309   2.094   2.894
  1011     Aa35 2613   2.765   1.937   2.904
  1011     Aa36 2614   2.685   1.990   2.850
  1011     Aa37 2615   2.706   1.795   2.920
  1011     Aa38 2616   2.600   1.789   2.945
  1011     Aa39 2617   2.752   1.725   2.783
  1011     Aa3a 2618   2.708   1.769   2.693
  1011     Aa3b 2619   2.744   1.616   2.774
  1011     Aa3c 2620   3.010   1.757   3.055
  1011     Aa3d 2621   3.139   1.782   3.095
  1011     Aa3e 2622   3.230   1.763   3.040
  1011     Aa3f 2623   3.653   2.247   4.077
  1011     Aa40 2624   3.672   2.335   4.141
  1011     Aa41 2625   3.633   2.164   4.149
  1011     Aa42 2626   3.748   2.221   4.025
  1011     Aa43 2627   3.536   2.275   3.986
  1011     Aa44 2628   3.540   2.159   3.878
  1011     Aa45 2629   3.443   2.178   3.827
  1011     Aa46 2630   3.531   2.057   3.927
  1011     Aa47 2631   3.631   2.165   3.818
  1011     Aa48 2632   3.538   2.414   3.930
  1011     Aa49 2633   3.420   2.480   3.963
  1011     Aa4a 2634   3.401   2.612   3.920
  1011     Aa4b 2635   3.321   2.666   3.957
  1011     Aa4c 2636   3.498   2.674   3.845
  1011     Aa4d 2637   3.500   2.766   3.729
  1011     Aa4e 2638   3.525   2.864   3.764
  1011     Aa4f 2639   3.621   2.680   3.675
  1011     Aa50 2640   3.717   2.731   3.681
  1011     Aa51 2641   3.576   2.626   3.543
  1011     Aa52 2642   3.636   2.539   3.515
  1011     Aa53 2643   3.570   2.749   3.443
  1011     Aa54 2644   3.540   2.726   3.349
  1011     Aa55 2645   3.461   2.847   3.498
  1011     Aa56 2646   3.378   2.868   3.436
  1011     Aa57 2647   3.390   2.761   3.622
  1011     Aa58 2648   3.287   2.790   3.643
  1011     Aa59 2649   3.419   2.618   3.565
  1011     Aa5a 2650   3.368   2.597   3.469
  1011     Aa5b 2651   3.385   2.532   3.629
  1011     Aa5c 2652   3.605   2.597   3.799
  1011     Aa5d 2653   3.622   2.462   3.829
  1011     Aa5e 2654   3.700   2.404   3.777
  1011     Aa5f 2655   3.349   2.399   4.052
  1011     Aa60 2656   3.411   2.275   4.064
  1011     Aa61 2657   3.358   2.172   4.134
  1011     Aa62 2658   3.401   2.072   4.137
  1011     Aa63 2659   3.238   2.204   4.194
  1011     Aa64 2660   3.130   2.142   4.269
  1011     Aa65 2661   3.055   2.080   4.219
  1011     Aa66 2662   3.050   2.280   4.265
  1011     Aa67 2663   2.964   2.284   4.196
  1011     Aa68 2664   3.000   2.304   4.420
  1011     Aa69 2665   2.910   2.370   4.441
  1011     Aa6a 2666   3.130   2.336   4.503
  1011     Aa6b 2667   3.100   2.370   4.604
  1011     Aa6c 2668   3.252   2.412   4.452
  1011     Aa6d 2669   3.340   2.308   4.456
  1011     Aa6e 2670   3.478   2.328   4.448
  1011     Aa6f 2671   3.578   2.215   4.465
  1011     Aa70 2672   3.683   2.256   4.473
  1011     Aa71 2673   3.580   2.150   4.377
  1011     Aa72 2674   3.549   2.151   4.544
  1011     Aa73 2675   3.512   2.465   4.411
  1011     Aa74 2676   3.413   2.559   4.391
  1011     Aa75 2677   3.277   2.544   4.406
  1011     Aa76 2678   3.180   2.655   4.401
  1011     Aa77 2679   3.118   2.650   4.483
  1011     Aa78 2680   3.125   2.643   4.308
  1011     Aa79 2681   3.222   2.753   4.407
  1011     Aa7a 2682   3.226   2.211   4.500
  1011     Aa7b 2683   3.256   2.168   4.598
  1011     Aa7c 2684   3.143   2.101   4.421
  1011     Aa7d 2685   3.165   1.997   4.432
  1011     Aa7e 2686   2.998   2.147   4.460
  1011     Aa7f 2687   2.917   2.090   4.416
  1011     Aa80 2688   2.984   2.127   4.566
  1011     Aa81 2689   3.174   2.324   4.190
  1011     Aa82 2690   3.224   2.423   4.112
  1011     Aa83 2691   3.176   2.525   4.104
  1011     Aa84 2692   2.706   1.892   4.529
  1011     Aa85 2693   2.685   1.973   4.453
  1011     Aa86 2694   2.808   1.879   4.544
  1011     Aa87 2695   2.658   1.800   4.492
  1011     Aa88 2696   2.630   1.923   4.658
  1011     Aa89 2697   2.478   1.943   4.630
  1011     Aa8a 2698   2.461   2.041   4.571
  1011     Aa8b 2699   2.421   1.955   4.720
  1011     Aa8c 2700   2.422   1.861   4.582
  1011     Aa8d 2701   2.682   2.048   4.737
  1011     Aa8e 2702   2.743   1.998   4.852
  1011     Aa8f 2703   2.789   2.091   4.957
  1011     Aa90 2704   2.807   2.050   5.052
  1011     Aa91 2705   2.773   2.232   4.935
  1011     Aa92 2706   2.704   2.340   5.020
  1011     Aa93 2707   2.767   2.395   5.087
  1011     Aa94 2708   2.671   2.407   4.885
  1011     Aa95 2709   2.721   2.500   4.859
  1011     Aa96 2710   2.507   2.437   4.884
  1011     Aa97 2711   2.460   2.461   4.794
  1011     Aa98 2712   2.491   2.528   5.002
  1011     Aa99 2713   2.557   2.612   4.985
  1011     Aa9a 2714   2.513   2.439   5.133
  1011     Aa9b 2715   2.588   2.478   5.207
  1011     Aa9c 2716   2.557   2.305   5.080
  1011     Aa9d 2717   2.547   2.218   5.154
  1011     Aa9e 2718   2.469   2.301   4.954
  1011     Aa9f 2719   2.482   2.211   4.892
  1011     Aaa0 2720   2.364   2.286   4.962
  1011     Aaa1 2721   2.719   2.276   4.822
  1011     Aaa2 2722   2.664   2.189   4.718
  1011     Aaa3 2723   2.611   2.233   4.631
  1011     Aaa4 2724   2.730   1.853   4.858
  1011     Aaa5 2725   2.644   1.800   4.753
  1011     Aaa6 2726   2.607   1.668   4.744
  1011     Aaa7 2727   2.550   1.614   4.667
  1011     Aaa8 2728   2.648   1.597   4.858
  1011     Aaa9 2729   2.639   1.459   4.922
  1011     Aaaa 2730   2.535   1.440   4.959
  1011     Aaab 2731   2.735   1.513   5.030
  1011     Aaac 2732   2.693   1.508   5.133
  1011     Aaad 2733   2.862   1.418   5.025
  1011     Aaae 2734   2.926   1.411   5.114
  1011     Aaaf 2735   2.917   1.418   4.873
  1011     Aab0 2736   3.015   1.368   4.881
  1011     Aab1 2737   2.923   1.519   4.760
  1011     Aab2 2738   2.839   1.442   4.680
  1011     Aab3 2739   2.807   1.457   4.543
  1011     Aab4 2740   2.725   1.357   4.461
  1011     Aab5 2741   2.616   1.380   4.468
  1011     Aab6 2742   2.756   1.256   4.482
  1011     Aab7 2743   2.751   1.364   4.357
  1011     Aab8 2744   2.881   1.564   4.494
  1011     Aab9 2745   2.974   1.633   4.563
  1011     Aaba 2746   3.000   1.619   4.701
  1011     Aabb 2747   3.105   1.702   4.774
  1011     Aabc 2748   3.150   1.648   4.856
  1011     Aabd 2749   3.191   1.718   4.704
  1011     Aabe 2750   3.069   1.796   4.809
  1011     Aabf 2751   2.812   1.335   4.784
  1011     Aac0 2752   2.846   1.237   4.758
  1011     Aac1 2753   2.689   1.313   4.878
  1011     Aac2 2754   2.615   1.239   4.854
  1011     Aac3 2755   2.772   1.287   5.011
  1011     Aac4 2756   2.839   1.198   5.001
  1011     Aac5 2757   2.717   1.265   5.100
  1011     Aac6 2758   2.724   1.647   4.962
  1011     Aac7 2759   2.781   1.772   4.956
  1011     Aac8 2760   2.849   1.813   5.028
  1011     Aac9 2761   3.306   1.614   2.321
  1011     Aaca 2762   3.354   1.627   2.426
  1011     Aacb 2763   3.226   1.691   2.322
  1011     Aacc 2764   3.259   1.517   2.326
  1011     Aacd 2765   3.415   1.625   2.202
  1011     Aace 2766   3.501   1.748   2.248
  1011     Aacf 2767   3.572   1.765   2.175
  1011     Aad0 2768   3.443   1.834   2.271
  1011     Aad1 2769   3.551   1.732   2.343
  1011     Aad2 2770   3.359   1.639   2.059
  1011     Aad3 2771   3.432   1.552   1.972
  1011     Aad4 2772   3.394   1.539   1.835
  1011     Aad5 2773   3.445   1.479   1.758
  1011     Aad6 2774   3.290   1.626   1.798
  1011     Aad7 2775   3.176   1.644   1.695
  1011     Aad8 2776   3.128   1.547   1.677
  1011     Aad9 2777   3.100   1.738   1.798
  1011     Aada 2778   3.001   1.709   1.831
  1011     Aadb 2779   3.071   1.867   1.728
  1011     Aadc 2780   3.032   1.951   1.793
  1011     Aadd 2781   2.969   1.826   1.598
  1011     Aade 2782   2.886   1.764   1.634
  1011     Aadf 2783   3.066   1.741   1.503
  1011     Aae0 2784   3.017   1.645   1.496
  1011     Aae1 2785   3.207   1.726   1.576
  1011     Aae2 2786   3.293   1.682   1.516
  1011     Aae3 2787   3.208   1.872   1.647
  1011     Aae4 2788   3.218   1.947   1.574
  1011     Aae5 2789   3.290   1.883   1.715
  1011     Aae6 2790   3.224   1.704   1.889
  1011     Aae7 2791   3.255   1.719   2.021
  1011     Aae8 2792   3.200   1.782   2.093
  1011     Aae9 2793   3.522   1.470   2.049
  1011     Aaea 2794   3.510   1.501   2.194
  1011     Aaeb 2795   3.564   1.414   2.294
  1011     Aaec 2796   3.557   1.433   2.399
  1011     Aaed 2797   3.638   1.312   2.240
  1011     Aaee 2798   3.727   1.198   2.288
  1011     Aaef 2799   3.820   1.238   2.324
  1011     Aaf0 2800   3.744   1.163   2.140
  1011     Aaf1 2801   3.837   1.182   2.097
  1011     Aaf2 2802   3.703   1.012   2.125
  1011     Aaf3 2803   3.733   0.958   2.027
  1011     Aaf4 2804   3.552   1.013   2.168
  1011     Aaf5 2805   3.500   1.078   2.106
  1011     Aaf6 2806   3.480   0.883   2.214
  1011     Aaf7 2807   3.476   0.919   2.339
  1011     Aaf8 2808   3.436   0.838   2.444
  1011     Aaf9 2809   3.456   0.883   2.579
  1011     Aafa 2810   3.525   0.967   2.589
  1011     Aafb 2811   3.495   0.806   2.645
  1011     Aafc 2812   3.367   0.922   2.631
  1011     Aafd 2813   3.370   5.153   2.409
  1011     Aafe 2814   3.368   5.111   2.270
  1011     Aaff 2815   3.434   5.185   2.170
  1011     Ab00 2816   3.445   5.150   2.022
  1011     Ab01 2817   3.361   5.195   1.960
  1011     Ab02 2818   3.548   5.174   1.989
  1011     Ab03 2819   3.438   5.043   2.010
  1011     Ab04 2820   3.553   1.050   2.322
  1011     Ab05 2821   3.493   1.135   2.349
  1011     Ab06 2822   3.697   1.064   2.366
  1011     Ab07 2823   3.723   1.052   2.469
  1011     Ab08 2824   3.768   0.970   2.258
  1011     Ab09 2825   3.758   0.863   2.284
  1011     Ab0a 2826   3.878   0.987   2.264
  1011     Ab0b 2827   3.661   1.285   2.108
  1011     Ab0c 2828   3.604   1.363   2.004
  1011     Ab0d 2829   3.613   1.330   1.905
  1011     Ab0e 2830   3.272   5.092   2.773
  1011     Ab0f 2831   3.208   5.184   2.786
  1011     Ab10 2832   3.368   5.098   2.833
  1011     Ab11 2833   3.303   5.077   2.672
  1011     Ab12 2834   3.195   4.961   2.822
  1011     Ab13 2835   3.294   4.844   2.815
  1011     Ab14 2836   3.250   4.744   2.834
  1011     Ab15 2837   3.354   4.836   2.722
  1011     Ab16 2838   3.372   4.853   2.892
  1011     Ab17 2839   3.079   4.925   2.730
  1011     Ab18 2840   2.958   4.901   2.813
  1011     Ab19 2841   2.842   4.869   2.754
  1011     Ab1a 2842   2.766   4.849   2.817
  1011     Ab1b 2843   2.846   4.845   2.618
  1011     Ab1c 2844   2.762   4.823   2.493
  1011     Ab1d 2845   2.684   4.897   2.492
  1011     Ab1e 2846   2.899   4.861   2.411
  1011     Ab1f 2847   2.901   4.962   2.359
  1011     Ab20 2848   2.932   4.743   2.316
  1011     Ab21 2849   3.035   4.730   2.276
  1011     Ab22 2850   2.814   4.755   2.220
  1011     Ab23 2851   2.812   4.857   2.182
  1011     Ab24 2852   2.676   4.716   2.299
  1011     Ab25 2853   2.601   4.788   2.299
  1011     Ab26 2854   2.721   4.682   2.445
  1011     Ab27 2855   2.655   4.627   2.512
  1011     Ab28 2856   2.869   4.631   2.403
  1011     Ab29 2857   2.872   4.539   2.351
  1011     Ab2a 2858   2.931   4.616   2.495
  1011     Ab2b 2859   2.961   4.872   2.544
  1011     Ab2c 2860   3.083   4.910   2.593
  1011     Ab2d 2861   3.171   4.932   2.534
  1011     Ab2e 2862   2.999   4.926   2.956
  1011     Ab2f 2863   3.133   4.977   2.962
  1011     Ab30 2864   3.189   5.035   3.077
  1011     Ab31 2865   3.289   5.077   3.090
  1011     Ab32 2866   3.106   5.016   3.184
  1011     Ab33 2867   3.104   5.053   3.333
  1011     Ab34 2868   3.163   4.986   3.393
  1011     Ab35 2869   2.948   5.013   3.336
  1011     Ab36 2870   2.935   4.922   3.390
  1011     Ab37 2871   2.867   5.123   3.413
  1011     Ab38 2872   2.776   5.099   3.453
  1011     Ab39 2873   2.882   0.822   3.314
  1011     Ab3a 2874   2.810   0.900   3.354
  1011     Ab3b 2875   2.879   0.824   3.170
  1011     Ab3c 2876   3.012   0.855   3.157
  1011     Ab3d 2877   3.075   0.904   3.040
  1011     Ab3e 2878   3.213   0.969   3.036
  1011     Ab3f 2879   3.243   1.018   3.131
  1011     Ab40 2880   3.219   1.044   2.960
  1011     Ab41 2881   3.287   0.889   3.015
  1011     Ab42 2882   2.985   0.894   2.935
  1011     Ab43 2883   2.846   0.877   2.948
  1011     Ab44 2884   2.784   0.846   3.068
  1011     Ab45 2885   2.639   0.841   3.089
  1011     Ab46 2886   2.588   0.825   2.999
  1011     Ab47 2887   2.603   5.179   3.144
  1011     Ab48 2888   2.607   0.933   3.128
  1011     Ab49 2889   3.036   0.861   3.305
  1011     Ab4a 2890   3.055   0.966   3.338
  1011     Ab4b 2891   3.103   5.193   3.403
  1011     Ab4c 2892   3.203   0.796   3.450
  1011     Ab4d 2893   2.978   5.173   3.506
  1011     Ab4e 2894   3.002   5.103   3.577
  1011     Ab4f 2895   2.956   0.832   3.563
  1011     Ab50 2896   2.975   4.981   3.188
  1011     Ab51 2897   2.917   4.926   3.072
  1011     Ab52 2898   2.822   4.885   3.071
  1011     Ab53 2899   5.110   1.509   1.752
  1011     Ab54 2900   5.059   1.420   1.709
  1011     Ab55 2901   5.071   1.529   1.848
  1011     Ab56 2902   0.785   1.464   1.756
  1011     Ab57 2903   5.109   1.635   1.662
  1011     Ab58 2904   4.963   1.671   1.622
  1011     Ab59 2905   4.906   1.578   1.607
  1011     Ab5a 2906   4.930   1.724   1.709
  1011     Ab5b 2907   4.958   1.729   1.530
  1011     Ab5c 2908   5.192   1.592   1.534
  1011     Ab5d 2909   0.867   1.686   1.517
  1011     Ab5e 2910   0.939   1.697   1.404
  1011     Ab5f 2911   1.012   1.771   1.376
  1011     Ab60 2912   0.897   1.597   1.308
  1011     Ab61 2913   0.948   1.546   1.173
  1011     Ab62 2914   1.052   1.518   1.173
  1011     Ab63 2915   0.848   1.425   1.199
  1011     Ab64 2916   0.919   1.344   1.215
  1011     Ab65 2917   5.188   1.410   1.077
  1011     Ab66 2918   5.100   1.350   1.090
  1011     Ab67 2919   0.865   1.375   0.969
  1011     Ab68 2920   0.923   1.289   1.005
  1011     Ab69 2921   0.946   1.499   0.944
  1011     Ab6a 2922   1.053   1.480   0.954
  1011     Ab6b 2923   0.895   1.605   1.040
  1011     Ab6c 2924   0.916   1.705   1.003
  1011     Ab6d 2925   5.175   1.555   1.044
  1011     Ab6e 2926   5.130   1.583   0.946
  1011     Ab6f 2927   5.118   1.616   1.116
  1011     Ab70 2928   0.814   1.496   1.324
  1011     Ab71 2929   5.156   1.495   1.434
  1011     Ab72 2930   5.080   1.424   1.444
  1011     Ab73 2931   0.862   1.782   1.625
  1011     Ab74 2932   5.189   1.757   1.715
  1011     Ab75 2933   5.173   1.834   1.836
  1011     Ab76 2934   5.092   1.820   1.903
  1011     Ab77 2935   0.835   1.935   1.852
  1011     Ab78 2936   0.874   2.048   1.950
  1011     Ab79 2937   0.813   2.139   1.936
  1011     Ab7a 2938   1.003   2.069   1.857
  1011     Ab7b 2939   1.014   2.165   1.803
  1011     Ab7c 2940   1.117   2.050   1.959
  1011     Ab7d 2941   1.213   2.099   1.932
  1011     Ab7e 2942   1.113   1.906   2.015
  1011     Ab7f 2943   1.106   1.830   1.931
  1011     Ab80 2944   1.191   1.847   2.134
  1011     Ab81 2945   1.073   1.844   2.219
  1011     Ab82 2946   1.078   1.867   2.353
  1011     Ab83 2947   0.968   1.906   2.452
  1011     Ab84 2948   0.912   1.818   2.490
  1011     Ab85 2949   0.996   1.957   2.546
  1011     Ab86 2950   0.897   1.979   2.408
  1011     Ab87 2951   1.209   1.857   2.399
  1011     Ab88 2952   1.321   1.846   2.331
  1011     Ab89 2953   1.321   1.856   2.186
  1011     Ab8a 2954   1.442   1.888   2.107
  1011     Ab8b 2955   1.442   1.990   2.078
  1011     Ab8c 2956   1.525   1.872   2.172
  1011     Ab8d 2957   1.459   1.835   2.014
  1011     Ab8e 2958   0.985   1.898   2.108
  1011     Ab8f 2959   0.914   1.823   2.072
  1011     Ab90 2960   0.920   2.038   2.099
  1011     Ab91 2961   0.831   2.064   2.169
  1011     Ab92 2962   1.055   2.126   2.084
  1011     Ab93 2963   1.118   2.113   2.174
  1011     Ab94 2964   1.054   2.238   2.074
  1011     Ab95 2965   0.943   1.962   1.772
  1011     Ab96 2966   0.962   1.889   1.656
  1011     Ab97 2967   1.045   1.906   1.592
  1011     Ab98 2968   1.971   2.729   2.876
  1011     Ab99 2969   2.076   2.753   2.888
  1011     Ab9a 2970   1.951   2.638   2.934
  1011     Ab9b 2971   1.910   2.811   2.926
  1011     Ab9c 2972   1.924   2.719   2.729
  1011     Ab9d 2973   1.992   2.837   2.656
  1011     Ab9e 2974   1.947   2.850   2.563
  1011     Ab9f 2975   2.098   2.823   2.630
  1011     Aba0 2976   1.974   2.933   2.713
  1011     Aba1 2977   1.760   2.711   2.727
  1011     Aba2 2978   1.732   2.578   2.692
  1011     Aba3 2979   1.609   2.521   2.731
  1011     Aba4 2980   1.579   2.411   2.730
  1011     Aba5 2981   1.509   2.617   2.750
  1011     Aba6 2982   1.360   2.636   2.778
  1011     Aba7 2983   1.350   2.592   2.878
  1011     Aba8 2984   1.383   2.796   2.772
  1011     Aba9 2985   1.371   2.861   2.857
  1011     Abaa 2986   1.287   2.840   2.649
  1011     Abab 2987   1.324   2.921   2.595
  1011     Abac 2988   1.146   2.836   2.715
  1011     Abad 2989   1.066   2.878   2.656
  1011     Abae 2990   1.118   2.683   2.747
  1011     Abaf 2991   1.027   2.662   2.696
  1011     Abb0 2992   1.241   2.606   2.687
  1011     Abb1 2993   1.213   2.500   2.657
  1011     Abb2 2994   1.279   2.698   2.563
  1011     Abb3 2995   1.202   2.689   2.478
  1011     Abb4 2996   1.379   2.676   2.530
  1011     Abb5 2997   1.527   2.758   2.751
  1011     Abb6 2998   1.657   2.811   2.755
  1011     Abb7 2999   1.677   2.923   2.768
  1011     Abb8 3000   1.852   2.501   2.653
  1011     Abb9 3001   1.965   2.583   2.675
  1011     Abba 3002   2.092   2.550   2.622
  1011     Abbb 3003   2.170   2.628   2.606
  1011     Abbc 3004   2.103   2.437   2.541
  1011     Abbd 3005   2.183   2.395   2.424
  1011     Abbe 3006   2.200   2.472   2.356
  1011     Abbf 3007   2.053   2.311   2.377
  1011     Abc0 3008   2.008   2.354   2.287
  1011     Abc1 3009   2.104   2.170   2.343
  1011     Abc2 3010   2.047   2.103   2.280
  1011     Abc3 3011   2.149   2.110   2.481
  1011     Abc4 3012   2.156   2.002   2.468
  1011     Abc5 3013   2.103   2.126   2.627
  1011     Abc6 3014   2.223   2.183   2.666
  1011     Abc7 3015   2.279   2.170   2.792
  1011     Abc8 3016   2.431   2.191   2.808
  1011     Abc9 3017   2.483   2.133   2.730
  1011     Abca 3018   2.462   2.145   2.915
  1011     Abcb 3019   2.450   2.291   2.791
  1011     Abcc 3020   2.191   2.101   2.875
  1011     Abcd 3021   2.063   2.054   2.842
  1011     Abce 3022   2.016   2.053   2.711
  1011     Abcf 3023   1.896   1.970   2.655
  1011     Abd0 3024   1.825   2.035   2.601
  1011     Abd1 3025   1.848   1.897   2.724
  1011     Abd2 3026   1.943   1.908   2.576
  1011     Abd3 3027   2.281   2.173   2.525
  1011     Abd4 3028   2.364   2.106   2.525
  1011     Abd5 3029   2.308   2.290   2.420
  1011     Abd6 3030   2.407   2.331   2.398
  1011     Abd7 3031   2.243   2.210   2.293
  1011     Abd8 3032   2.304   2.125   2.260
  1011     Abd9 3033   2.236   2.267   2.207
  1011     Abda 3034   1.990   2.360   2.511
  1011     Abdb 3035   1.860   2.393   2.563
  1011     Abdc 3036   1.771   2.349   2.522
  1011     Abdd 3037   4.047   1.569   2.904
  1011     Abde 3038   3.966   1.646   2.930
  1011     Abdf 3039   3.995   1.489   2.848
  1011     Abe0 3040   4.140   1.597   2.845
  1011     Abe1 3041   4.083   1.500   3.040
  1011     Abe2 3042   4.115   1.610   3.142
  1011     Abe3 3043   4.183   1.680   3.089
  1011     Abe4 3044   4.172   1.553   3.216
  1011     Abe5 3045   4.022   1.649   3.190
  1011     Abe6 3046   4.207   1.407   3.008
  1011     Abe7 3047   4.169   1.271   3.040
  1011     Abe8 3048   4.258   1.168   3.043
  1011     Abe9 3049   4.226   1.071   3.069
  1011     Abea 3050   4.392   1.198   3.027
  1011     Abeb 3051   4.513   1.171   3.120
  1011     Abec 3052   4.577   1.096   3.071
  1011     Abed 3053   4.562   1.320   3.089
  1011     Abee 3054   4.655   1.341   3.037
  1011     Abef 3055   4.581   1.386   3.228
  1011     Abf0 3056   4.588   1.494   3.233
  1011     Abf1 3057   4.696   1.309   3.304
  1011     Abf2 3058   4.715   1.359   3.398
  1011     Abf3 3059   4.638   1.162   3.330
  1011     Abf4 3060   4.640   1.146   3.437
  1011     Abf5 3061   4.494   1.166   3.273
  1011     Abf6 3062   4.410   1.099   3.306
  1011     Abf7 3063   4.461   1.318   3.305
  1011     Abf8 3064   4.466   1.338   3.412
  1011     Abf9 3065   4.366   1.351   3.255
  1011     Abfa 3066   4.437   1.335   3.006
  1011     Abfb 3067   4.349   1.437   2.997
  1011     Abfc 3068   4.379   1.544   2.997
  1011     Abfd 3069   4.030   1.268   3.088
  1011     Abfe 3070   3.971   1.398   3.089
  1011     Abff 3071   3.845   1.413   3.152
  1011     Ac00 3072   3.797   1.507   3.161
  1011     Ac01 3073   3.793   1.297   3.221
  1011     Ac02 3074   3.724   1.268   3.356
  1011     Ac03 3075   3.778   1.314   3.440
  1011     Ac04 3076   3.777   1.117   3.331
  1011     Ac05 3077   3.845   1.095   3.413
  1011     Ac06 3078   3.650   1.028   3.336
  1011     Ac07 3079   3.683   0.926   3.345
  1011     Ac08 3080   3.559   1.069   3.218
  1011     Ac09 3081   3.481   0.994   3.209
  1011     Ac0a 3082   3.565   1.146   3.085
  1011     Ac0b 3083   3.517   1.269   3.127
  1011     Ac0c 3084   3.431   1.348   3.053
  1011     Ac0d 3085   3.347   1.446   3.121
  1011     Ac0e 3086   3.247   1.440   3.069
  1011     Ac0f 3087   3.328   1.425   3.227
  1011     Ac10 3088   3.385   1.550   3.115
  1011     Ac11 3089   3.412   1.308   2.921
  1011     Ac12 3090   3.469   1.195   2.874
  1011     Ac13 3091   3.541   1.105   2.953
  1011     Ac14 3092   3.551   0.963   2.904
  1011     Ac15 3093   3.561   0.898   2.993
  1011     Ac16 3094   3.455   0.934   2.859
  1011     Ac17 3095   3.637   0.963   2.833
  1011     Ac18 3096   3.491   1.208   3.268
  1011     Ac19 3097   3.383   1.192   3.294
  1011     Ac1a 3098   3.567   1.245   3.397
  1011     Ac1b 3099   3.538   1.319   3.469
  1011     Ac1c 3100   3.583   1.096   3.458
  1011     Ac1d 3101   3.485   1.059   3.489
  1011     Ac1e 3102   3.642   1.088   3.545
  1011     Ac1f 3103   3.846   1.174   3.208
  1011     Ac20 3104   3.967   1.152   3.148
  1011     Ac21 3105   4.011   1.059   3.161
  1011     Ac22 3106   4.556   1.782   3.297
  1011     Ac23 3107   4.519   1.862   3.356
  1011     Ac24 3108   4.471   1.741   3.239
  1011     Ac25 3109   4.570   1.697   3.363
  1011     Ac26 3110   4.682   1.833   3.223
  1011     Ac27 3111   4.716   1.731   3.104
  1011     Ac28 3112   4.802   1.774   3.054
  1011     Ac29 3113   4.633   1.729   3.038
  1011     Ac2a 3114   4.751   1.636   3.139
  1011     Ac2b 3115   4.801   1.841   3.316
  1011     Ac2c 3116   4.852   1.970   3.308
  1011     Ac2d 3117   4.966   2.007   3.389
  1011     Ac2e 3118   5.011   2.108   3.386
  1011     Ac2f 3119   5.015   1.914   3.474
  1011     Ac30 3120   5.058   1.927   3.623
  1011     Ac31 3121   5.007   2.011   3.666
  1011     Ac32 3122   4.987   1.788   3.638
  1011     Ac33 3123   4.890   1.792   3.686
  1011     Ac34 3124   5.095   1.688   3.693
  1011     Ac35 3125   5.092   1.579   3.669
  1011     Ac36 3126   5.104   1.751   3.836
  1011     Ac37 3127   5.007   1.770   3.884
  1011     Ac38 3128   5.186   1.888   3.818
  1011     Ac39 3129   5.129   1.977   3.859
  1011     Ac3a 3130   5.205   1.901   3.668
  1011     Ac3b 3131   0.852   1.966   3.631
  1011     Ac3c 3132   0.793   1.750   3.635
  1011     Ac3d 3133   0.797   1.730   3.528
  1011     Ac3e 3134   0.891   1.715   3.678
  1011     Ac3f 3135   4.954   1.792   3.493
  1011     Ac40 3136   4.842   1.749   3.416
  1011     Ac41 3137   4.792   1.654   3.427
  1011     Ac42 3138   4.766   2.056   3.232
  1011     Ac43 3139   4.660   1.970   3.178
  1011     Ac44 3140   4.551   2.023   3.113
  1011     Ac45 3141   4.470   1.966   3.080
  1011     Ac46 3142   4.541   2.165   3.107
  1011     Ac47 3143   4.451   2.284   3.076
  1011     Ac48 3144   4.454   2.303   2.970
  1011     Ac49 3145   4.570   2.377   3.149
  1011     Ac4a 3146   4.617   2.442   3.079
  1011     Ac4b 3147   4.496   2.475   3.251
  1011     Ac4c 3148   4.547   2.565   3.283
  1011     Ac4d 3149   4.441   2.378   3.357
  1011     Ac4e 3150   4.405   2.436   3.440
  1011     Ac4f 3151   4.485   2.236   3.408
  1011     Ac50 3152   4.368   2.174   3.362
  1011     Ac51 3153   4.299   2.077   3.439
  1011     Ac52 3154   4.161   2.053   3.420
  1011     Ac53 3155   4.156   2.000   3.324
  1011     Ac54 3156   4.117   2.000   3.501
  1011     Ac55 3157   4.107   2.152   3.418
  1011     Ac56 3158   4.375   2.022   3.546
  1011     Ac57 3159   4.497   2.077   3.582
  1011     Ac58 3160   4.551   2.194   3.526
  1011     Ac59 3161   4.668   2.277   3.589
  1011     Ac5a 3162   4.643   2.352   3.672
  1011     Ac5b 3163   4.755   2.220   3.629
  1011     Ac5c 3164   4.714   2.342   3.513
  1011     Ac5d 3165   4.324   2.298   3.294
  1011     Ac5e 3166   4.233   2.318   3.335
  1011     Ac5f 3167   4.317   2.342   3.147
  1011     Ac60 3168   4.218   2.329   3.098
  1011     Ac61 3169   4.371   2.504   3.159
  1011     Ac62 3170   4.308   2.575   3.199
  1011     Ac63 3171   4.404   2.547   3.062
  1011     Ac64 3172   4.635   2.247   3.165
  1011     Ac65 3173   4.748   2.201   3.225
  1011     Ac66 3174   4.813   2.270   3.273
  1011     Ac67 3175   4.980   1.988   4.843
  1011     Ac68 3176   5.069   2.000   4.792
  1011     Ac69 3177   5.008   1.974   4.944
  1011     Ac6a 3178   4.916   2.069   4.817
  1011     Ac6b 3179   4.919   1.855   4.792
  1011     Ac6c 3180   4.907   1.872   4.636
  1011     Ac6d 3181   4.846   1.793   4.589
  1011     Ac6e 3182   4.867   1.976   4.614
  1011     Ac6f 3183   4.994   1.872   4.572
  1011     Ac70 3184   4.783   1.828   4.858
  1011     Ac71 3185   4.786   1.700   4.915
  1011     Ac72 3186   4.685   1.659   5.003
  1011     Ac73 3187   4.692   1.564   5.068
  1011     Ac74 3188   4.581   1.749   5.026
  1011     Ac75 3189   4.475   1.780   5.123
  1011     Ac76 3190   4.523   1.807   0.787
  1011     Ac77 3191   4.447   1.912   5.027
  1011     Ac78 3192   4.463   2.016   5.072
  1011     Ac79 3193   4.293   1.898   4.981
  1011     Ac7a 3194   4.265   1.950   4.891
  1011     Ac7b 3195   4.212   1.922   5.121
  1011     Ac7c 3196   4.107   1.912   5.091
  1011     Ac7d 3197   4.257   1.814   0.792
  1011     Ac7e 3198   4.170   1.765   0.831
  1011     Ac7f 3199   4.341   1.709   5.130
  1011     Ac80 3200   4.346   1.602   5.154
  1011     Ac81 3201   4.280   1.743   4.992
  1011     Ac82 3202   4.180   1.706   4.981
  1011     Ac83 3203   4.340   1.695   4.915
  1011     Ac84 3204   4.570   1.861   4.947
  1011     Ac85 3205   4.673   1.919   4.868
  1011     Ac86 3206   4.682   2.015   4.816
  1011     Ac87 3207   4.919   1.643   4.890
  1011     Ac88 3208   5.007   1.732   4.830
  1011     Ac89 3209   5.138   1.693   4.793
  1011     Ac8a 3210   5.199   1.757   4.730
  1011     Ac8b 3211   5.173   1.561   4.819
  1011     Ac8c 3212   0.808   1.463   4.717
  1011     Ac8d 3213   0.794   1.508   4.616
  1011     Ac8e 3214   5.138   1.357   4.761
  1011     Ac8f 3215   5.054   1.339   4.688
  1011     Ac90 3216   0.792   1.228   4.775
  1011     Ac91 3217   5.177   1.128   4.773
  1011     Ac92 3218   0.888   1.248   4.902
  1011     Ac93 3219   0.946   1.158   4.918
  1011     Ac94 3220   0.856   1.314   5.029
  1011     Ac95 3221   0.920   1.437   4.995
  1011     Ac96 3222   0.963   1.530   5.094
  1011     Ac97 3223   1.061   1.633   5.054
  1011     Ac98 3224   1.161   1.577   5.023
  1011     Ac99 3225   1.022   1.692   4.964
  1011     Ac9a 3226   1.091   1.698   5.140
  1011     Ac9b 3227   0.914   1.492   0.796
  1011     Ac9c 3228   0.842   1.376   0.823
  1011     Ac9d 3229   0.811   1.273   5.158
  1011     Ac9e 3230   5.210   1.129   5.187
  1011     Ac9f 3231   5.167   1.131   0.858
  1011     Aca0 3232   0.873   1.078   5.194
  1011     Aca1 3233   5.136   1.074   5.123
  1011     Aca2 3234   0.979   1.374   4.868
  1011     Aca3 3235   1.086   1.351   4.878
  1011     Aca4 3236   0.947   1.394   4.720
  1011     Aca5 3237   1.018   1.448   4.661
  1011     Aca6 3238   0.908   1.262   4.665
  1011     Aca7 3239   0.994   1.193   4.664
  1011     Aca8 3240   0.863   1.267   4.564
  1011     Aca9 3241   5.084   1.464   4.863
  1011     Acaa 3242   4.951   1.502   4.901
  1011     Acab 3243   4.874   1.427   4.909
  1011     Acac 3244   4.119   0.941   1.799
  1011     Acad 3245   4.049   0.870   1.841
  1011     Acae 3246   4.089   0.953   1.694
  1011     Acaf 3247   4.102   1.043   1.842
  1011     Acb0 3248   4.271   0.899   1.810
  1011     Acb1 3249   4.314   5.203   1.732
  1011     Acb2 3250   4.424   5.190   1.731
  1011     Acb3 3251   4.272   0.788   1.630
  1011     Acb4 3252   4.266   5.108   1.776
  1011     Acb5 3253   4.309   0.906   1.955
  1011     Acb6 3254   4.396   1.018   1.976
  1011     Acb7 3255   4.461   1.042   2.098
  1011     Acb8 3256   4.540   1.120   2.107
  1011     Acb9 3257   4.425   0.951   2.197
  1011     Acba 3258   4.494   0.881   2.312
  1011     Acbb 3259   4.495   0.942   2.406
  1011     Acbc 3260   4.387   5.200   2.297
  1011     Acbd 3261   4.313   5.201   2.384
  1011     Acbe 3262   4.478   5.070   2.287
  1011     Acbf 3263   4.433   4.982   2.243
  1011     Acc0 3264   4.551   5.067   2.434
  1011     Acc1 3265   4.475   5.088   2.512
  1011     Acc2 3266   4.657   5.176   2.425
  1011     Acc3 3267   4.654   0.824   2.513
  1011     Acc4 3268   4.637   0.819   2.285
  1011     Acc5 3269   4.717   0.889   2.242
  1011     Acc6 3270   4.593   5.130   2.198
  1011     Acc7 3271   4.556   5.150   2.097
  1011     Acc8 3272   4.672   5.056   2.185
  1011     Acc9 3273   4.336   0.848   2.183
  1011     Acca 3274   4.280   0.816   2.060
  1011     Accb 3275   4.227   5.150   2.055
  1011     Accc 3276   4.408   1.090   1.844
  1011     Accd 3277   4.352   1.014   1.739
  1011     Acce 3278   4.367   1.042   1.601
  1011     Accf 3279   4.341   0.968   1.526
  1011     Acd0 3280   4.443   1.160   1.573
  1011     Acd1 3281   4.490   1.251   1.464
  1011     Acd2 3282   4.411   1.282   1.396
  1011     Acd3 3283   4.533   1.350   1.581
  1011     Acd4 3284   4.463   1.433   1.592
  1011     Acd5 3285   4.676   1.380   1.561
  1011     Acd6 3286   4.725   1.414   1.653
  1011     Acd7 3287   4.653   1.483   1.438
  1011     Acd8 3288   4.737   1.549   1.431
  1011     Acd9 3289   4.528   1.558   1.382
  1011     Acda 3290   4.522   1.478   1.271
  1011     Acdb 3291   4.421   1.480   1.172
  1011     Acdc 3292   4.422   1.402   1.038
  1011     Acdd 3293   4.389   1.302   1.038
  1011     Acde 3294   4.519   1.399   0.981
  1011     Acdf 3295   4.348   1.443   0.963
  1011     Ace0 3296   4.326   1.578   1.205
  1011     Ace1 3297   4.324   1.650   1.321
  1011     Ace2 3298   4.428   1.651   1.418
  1011     Ace3 3299   4.433   1.726   1.550
  1011     Ace4 3300   4.336   1.741   1.584
  1011     Ace5 3301   4.474   1.663   1.635
  1011     Ace6 3302   4.486   1.829   1.546
  1011     Ace7 3303   4.635   1.382   1.312
  1011     Ace8 3304   4.723   1.392   1.238
  1011     Ace9 3305   4.618   1.234   1.368
  1011     Acea 3306   4.628   1.154   1.295
  1011     Aceb 3307   4.724   1.252   1.484
  1011     Acec 3308   4.721   1.166   1.548
  1011     Aced 3309   4.826   1.265   1.459
  1011     Acee 3310   4.491   1.237   1.675
  1011     Acef 3311   4.489   1.209   1.813
  1011     Acf0 3312   4.523   1.279   1.891
  1011     Acf1 3313   4.470   1.127   3.648
  1011     Acf2 3314   4.518   1.033   3.617
  1011     Acf3 3315   4.388   1.101   3.717
  1011     Acf4 3316   4.424   1.164   3.558
  1011     Acf5 3317   4.583   1.217   3.724
  1011     Acf6 3318   4.557   1.181   3.872
  1011     Acf7 3319   4.544   1.072   3.885
  1011     Acf8 3320   4.463   1.226   3.901
  1011     Acf9 3321   4.634   1.216   3.932
  1011     Acfa 3322   4.565   1.369   3.697
  1011     Acfb 3323   4.697   1.423   3.698
  1011     Acfc 3324   4.721   1.561   3.686
  1011     Acfd 3325   4.823   1.596   3.691
  1011     Acfe 3326   4.608   1.641   3.674
  1011     Acff 3327   4.567   1.787   3.654
  1011     Ad00 3328   4.598   1.842   3.560
  1011     Ad01 3329   4.417   1.733   3.632
  1011     Ad02 3330   4.395   1.742   3.521
  1011     Ad03 3331   4.337   1.817   3.736
  1011     Ad04 3332   4.233   1.786   3.764
  1011     Ad05 3333   4.347   1.966   3.684
  1011     Ad06 3334   4.262   2.016   3.732
  1011     Ad07 3335   4.494   2.013   3.719
  1011     Ad08 3336   4.483   2.086   3.803
  1011     Ad09 3337   4.569   1.888   3.778
  1011     Ad0a 3338   4.666   1.904   3.830
  1011     Ad0b 3339   4.446   1.831   3.861
  1011     Ad0c 3340   4.412   1.891   3.938
  1011     Ad0d 3341   4.468   1.727   3.894
  1011     Ad0e 3342   4.483   1.593   3.653
  1011     Ad0f 3343   4.451   1.455   3.670
  1011     Ad10 3344   4.354   1.417   3.659
  1011     Ad11 3345   4.794   1.318   3.670
  1011     Ad12 3346   4.734   1.195   3.680
  1011     Ad13 3347   4.805   1.070   3.640
  1011     Ad14 3348   4.762   0.969   3.662
  1011     Ad15 3349   4.930   1.102   3.589
  1011     Ad16 3350   5.072   1.030   3.588
  1011     Ad17 3351   5.092   0.994   3.691
  1011     Ad18 3352   5.134   1.175   3.559
  1011     Ad19 3353   5.189   1.210   3.643
  1011     Ad1a 3354   0.810   1.161   3.454
  1011     Ad1b 3355   0.883   1.244   3.445
  1011     Ad1c 3356   5.160   1.114   3.331
  1011     Ad1d 3357   0.807   1.112   3.245
  1011     Ad1e 3358   5.024   1.154   3.279
  1011     Ad1f 3359   4.972   1.024   3.297
  1011     Ad20 3360   4.834   0.998   3.309
  1011     Ad21 3361   4.766   0.885   3.384
  1011     Ad22 3362   4.682   0.927   3.444
  1011     Ad23 3363   4.831   0.833   3.453
  1011     Ad24 3364   4.729   0.803   3.324
  1011     Ad25 3365   4.763   1.113   3.272
  1011     Ad26 3366   4.808   1.240   3.240
  1011     Ad27 3367   4.948   1.265   3.252
  1011     Ad28 3368   5.004   1.411   3.254
  1011     Ad29 3369   4.953   1.474   3.188
  1011     Ad2a 3370   5.002   1.445   3.353
  1011     Ad2b 3371   5.114   1.411   3.225
  1011     Ad2c 3372   5.101   0.967   3.359
  1011     Ad2d 3373   5.136   0.892   3.288
  1011     Ad2e 3374   5.150   0.934   3.494
  1011     Ad2f 3375   5.159   0.832   3.520
  1011     Ad30 3376   0.856   1.015   3.495
  1011     Ad31 3377   0.926   0.973   3.424
  1011     Ad32 3378   0.909   1.010   3.591
  1011     Ad33 3379   4.984   1.224   3.569
  1011     Ad34 3380   4.919   1.338   3.610
  1011     Ad35 3381   4.967   1.434   3.601
  1011     Ad36 3382   2.265   3.934   1.031
  1011     Ad37 3383   2.183   4.000   1.057
  1011     Ad38 3384   2.277   3.957   0.923
  1011     Ad39 3385   2.226   3.834   1.041
  1011     Ad3a 3386   2.395   3.952   1.110
  1011     Ad3b 3387   2.504   3.859   1.054
  1011     Ad3c 3388   2.486   3.755   1.069
  1011     Ad3d 3389   2.602   3.890   1.083
  1011     Ad3e 3390   2.512   3.871   0.945
  1011     Ad3f 3391   2.379   3.932   1.265
  1011     Ad40 3392   2.418   4.055   1.322
  1011     Ad41 3393   2.418   4.066   1.463
  1011     Ad42 3394   2.475   4.140   1.512
  1011     Ad43 3395   2.372   3.951   1.538
  1011     Ad44 3396   2.410   3.884   1.666
  1011     Ad45 3397   2.355   3.921   1.757
  1011     Ad46 3398   2.365   3.750   1.590
  1011     Ad47 3399   2.270   3.700   1.621
  1011     Ad48 3400   2.486   3.648   1.597
  1011     Ad49 3401   2.492   3.563   1.532
  1011     Ad4a 3402   2.489   3.611   1.741
  1011     Ad4b 3403   2.389   3.568   1.773
  1011     Ad4c 3404   2.539   3.753   1.812
  1011     Ad4d 3405   2.476   3.798   1.891
  1011     Ad4e 3406   2.558   3.859   1.701
  1011     Ad4f 3407   2.637   3.934   1.720
  1011     Ad50 3408   2.604   3.764   1.583
  1011     Ad51 3409   2.709   3.721   1.584
  1011     Ad52 3410   2.587   3.804   1.480
  1011     Ad53 3411   2.340   3.838   1.473
  1011     Ad54 3412   2.347   3.816   1.337
  1011     Ad55 3413   2.326   3.718   1.287
  1011     Ad56 3414   2.459   4.152   1.223
  1011     Ad57 3415   2.443   4.095   1.087
  1011     Ad58 3416   2.501   4.153   0.974
  1011     Ad59 3417   2.507   4.096   0.880
  1011     Ad5a 3418   2.566   4.278   0.989
  1011     Ad5b 3419   2.689   4.339   0.925
  1011     Ad5c 3420   2.762   4.259   0.888
  1011     Ad5d 3421   2.719   4.385   1.072
  1011     Ad5e 3422   2.807   4.326   1.103
  1011     Ad5f 3423   2.768   4.529   1.069
  1011     Ad60 3424   2.843   4.566   1.142
  1011     Ad61 3425   2.651   4.612   1.039
  1011     Ad62 3426   2.686   4.717   1.049
  1011     Ad63 3427   2.500   4.600   1.062
  1011     Ad64 3428   2.469   4.571   0.929
  1011     Ad65 3429   2.341   4.538   0.876
  1011     Ad66 3430   2.317   4.487   5.165
  1011     Ad67 3431   2.279   4.576   5.111
  1011     Ad68 3432   2.242   4.413   5.166
  1011     Ad69 3433   2.415   4.455   5.117
  1011     Ad6a 3434   2.253   4.540   0.986
  1011     Ad6b 3435   2.286   4.564   1.123
  1011     Ad6c 3436   2.412   4.593   1.165
  1011     Ad6d 3437   2.466   4.575   1.315
  1011     Ad6e 3438   2.577   4.574   1.314
  1011     Ad6f 3439   2.431   4.489   1.358
  1011     Ad70 3440   2.424   4.660   1.370
  1011     Ad71 3441   2.617   4.588   0.884
  1011     Ad72 3442   2.630   4.682   0.822
  1011     Ad73 3443   2.713   4.467   0.834
  1011     Ad74 3444   2.719   4.454   5.154
  1011     Ad75 3445   2.838   4.518   0.919
  1011     Ad76 3446   2.881   4.614   0.889
  1011     Ad77 3447   2.926   4.447   0.910
  1011     Ad78 3448   2.586   4.326   1.114
  1011     Ad79 3449   2.535   4.268   1.233
  1011     Ad7a 3450   2.573   4.311   1.327
  1011     Ad7b 3451   1.223   1.305   2.546
  1011     Ad7c 3452   1.264   1.403   2.572
  1011     Ad7d 3453   1.123   1.293   2.589
  1011     Ad7e 3454   1.223   1.310   2.434
  1011     Ad7f 3455   1.322   1.202   2.596
  1011     Ad80 3456   1.340   1.229   2.746
  1011     Ad81 3457   1.377   1.327   2.768
  1011     Ad82 3458   1.249   1.220   2.800
  1011     Ad83 3459   1.395   1.145   2.784
  1011     Ad84 3460   1.456   1.223   2.528
  1011     Ad85 3461   1.488   1.096   2.467
  1011     Ad86 3462   1.578   1.093   2.362
  1011     Ad87 3463   1.586   1.016   2.289
  1011     Ad88 3464   1.649   1.209   2.342
  1011     Ad89 3465   1.740   1.278   2.248
  1011     Ad8a 3466   1.692   1.285   2.152
  1011     Ad8b 3467   1.720   1.414   2.332
  1011     Ad8c 3468   1.675   1.500   2.286
  1011     Ad8d 3469   1.858   1.457   2.381
  1011     Ad8e 3470   1.872   1.508   2.473
  1011     Ad8f 3471   1.918   1.524   2.251
  1011     Ad90 3472   1.852   1.600   2.213
  1011     Ad91 3473   1.933   1.402   2.144
  1011     Ad92 3474   1.872   1.419   2.052
  1011     Ad93 3475   1.896   1.275   2.236
  1011     Ad94 3476   1.923   1.178   2.198
  1011     Ad95 3477   1.932   1.325   2.377
  1011     Ad96 3478   2.038   1.347   2.397
  1011     Ad97 3479   1.897   1.248   2.438
  1011     Ad98 3480   1.630   1.327   2.412
  1011     Ad99 3481   1.529   1.342   2.502
  1011     Ad9a 3482   1.507   1.436   2.556
  1011     Ad9b 3483   1.389   1.000   2.493
  1011     Ad9c 3484   1.278   1.058   2.554
  1011     Ad9d 3485   1.147   1.002   2.537
  1011     Ad9e 3486   1.058   1.060   2.551
  1011     Ad9f 3487   1.144   0.876   2.473
  1011     Ada0 3488   1.058   0.812   2.363
  1011     Ada1 3489   1.011   0.893   2.302
  1011     Ada2 3490   1.189   5.174   2.313
  1011     Ada3 3491   1.232   0.790   2.219
  1011     Ada4 3492   1.160   5.018   2.309
  1011     Ada5 3493   1.246   4.954   2.302
  1011     Ada6 3494   1.067   5.016   2.183
  1011     Ada7 3495   1.050   4.910   2.151
  1011     Ada8 3496   1.059   5.104   2.066
  1011     Ada9 3497   0.940   5.167   2.099
  1011     Adaa 3498   0.895   0.860   2.049
  1011     Adab 3499   5.208   0.937   2.108
  1011     Adac 3500   5.112   0.894   2.071
  1011     Adad 3501   5.208   0.943   2.217
  1011     Adae 3502   5.209   1.040   2.073
  1011     Adaf 3503   0.990   0.918   1.966
  1011     Adb0 3504   1.112   0.856   1.939
  1011     Adb1 3505   1.150   5.157   1.974
  1011     Adb2 3506   1.291   5.104   1.960
  1011     Adb3 3507   1.296   5.039   1.871
  1011     Adb4 3508   1.355   5.187   1.937
  1011     Adb5 3509   1.326   5.057   2.060
  1011     Adb6 3510   0.924   5.084   2.232
  1011     Adb7 3511   0.845   5.003   2.228
  1011     Adb8 3512   0.958   5.123   2.377
  1011     Adb9 3513   0.883   5.138   2.448
  1011     Adba 3514   1.054   5.001   2.418
  1011     Adbb 3515   1.004   4.904   2.414
  1011     Adbc 3516   1.084   5.032   2.520
  1011     Adbd 3517   1.258   0.814   2.429
  1011     Adbe 3518   1.380   0.872   2.427
  1011     Adbf 3519   1.460   0.840   2.362
  1011     Adc0 3520   1.800   1.532   3.078
  1011     Adc1 3521   1.770   1.612   3.150
  1011     Adc2 3522   1.837   1.439   3.120
  1011     Adc3 3523   1.881   1.577   3.027
  1011     Adc4 3524   1.692   1.495   2.969
  1011     Adc5 3525   1.761   1.405   2.857
  1011     Adc6 3526   1.786   1.309   2.902
  1011     Adc7 3527   1.849   1.456   2.819
  1011     Adc8 3528   1.696   1.393   2.771
  1011     Adc9 3529   1.635   1.627   2.925
  1011     Adca 3530   1.507   1.633   2.983
  1011     Adcb 3531   1.418   1.741   2.951
  1011     Adcc 3532   1.310   1.750   2.977
  1011     Adcd 3533   1.465   1.838   2.856
  1011     Adce 3534   1.400   1.891   2.734
  1011     Adcf 3535   1.357   1.986   2.745
  1011     Add0 3536   1.530   1.878   2.657
  1011     Add1 3537   1.575   1.980   2.636
  1011     Add2 3538   1.508   1.792   2.532
  1011     Add3 3539   1.600   1.742   2.499
  1011     Add4 3540   1.415   1.886   2.438
  1011     Add5 3541   1.468   1.977   2.420
  1011     Add6 3542   1.282   1.900   2.519
  1011     Add7 3543   1.255   2.006   2.539
  1011     Add8 3544   1.298   1.808   2.649
  1011     Add9 3545   1.212   1.791   2.704
  1011     Adda 3546   1.395   1.693   2.594
  1011     Addb 3547   1.352   1.622   2.527
  1011     Addc 3548   1.449   1.635   2.668
  1011     Addd 3549   1.587   1.819   2.784
  1011     Adde 3550   1.673   1.712   2.817
  1011     Addf 3551   1.753   1.679   2.752
  1011     Ade0 3552   1.475   1.522   3.058
  1011     Ade1 3553   1.580   1.429   3.047
  1011     Ade2 3554   1.561   1.288   3.085
  1011     Ade3 3555   1.639   1.217   3.069
  1011     Ade4 3556   1.439   1.262   3.142
  1011     Ade5 3557   1.349   1.140   3.113
  1011     Ade6 3558   1.376   1.095   3.016
  1011     Ade7 3559   1.231   1.246   3.112
  1011     Ade8 3560   1.186   1.260   3.017
  1011     Ade9 3561   1.122   1.185   3.210
  1011     Adea 3562   1.018   1.223   3.205
  1011     Adeb 3563   1.183   1.184   3.354
  1011     Adec 3564   1.110   1.148   3.412
  1011     Aded 3565   1.274   1.281   3.422
  1011     Adee 3566   1.387   1.188   3.409
  1011     Adef 3567   1.476   1.161   3.508
  1011     Adf0 3568   1.563   1.039   3.494
  1011     Adf1 3569   1.651   1.042   3.559
  1011     Adf2 3570   1.573   1.012   3.390
  1011     Adf3 3571   1.495   0.958   3.526
  1011     Adf4 3572   1.451   1.233   3.629
  1011     Adf5 3573   1.349   1.325   3.653
  1011     Adf6 3574   1.247   1.352   3.551
  1011     Adf7 3575   1.116   1.411   3.586
  1011     Adf8 3576   1.115   1.453   3.685
  1011     Adf9 3577   1.037   1.340   3.576
  1011     Adfa 3578   1.085   1.487   3.516
  1011     Adfb 3579   1.300   1.082   3.353
  1011     Adfc 3580   1.281   1.000   3.428
  1011     Adfd 3581   1.309   1.020   3.213
  1011     Adfe 3582   1.360   0.920   3.197
  1011     Adff 3583   1.153   1.031   3.187
  1011     Ae00 3584   1.135   0.994   3.087
  1011     Ae01 3585   1.094   0.971   3.263
  1011     Ae02 3586   1.332   1.353   3.138
  1011     Ae03 3587   1.340   1.481   3.090
  1011     Ae04 3588   1.246   1.535   3.077
  1011     Ae05 3589   1.793   3.870   1.489
  1011     Ae06 3590   1.684   3.869   1.487
  1011     Ae07 3591   1.838   3.946   1.559
  1011     Ae08 3592   1.825   3.775   1.523
  1011     Ae09 3593   1.851   3.896   1.345
  1011     Ae0a 3594   2.005   3.862   1.349
  1011     Ae0b 3595   2.026   3.763   1.386
  1011     Ae0c 3596   2.033   3.863   1.242
  1011     Ae0d 3597   2.063   3.935   1.404
  1011     Ae0e 3598   1.820   4.042   1.297
  1011     Ae0f 3599   1.762   4.038   1.173
  1011     Ae10 3600   1.773   4.146   1.080
  1011     Ae11 3601   1.752   4.139   0.975
  1011     Ae12 3602   1.829   4.260   1.134
  1011     Ae13 3603   1.897   4.393   1.087
  1011     Ae14 3604   1.831   4.475   1.057
  1011     Ae15 3605   1.944   4.403   1.241
  1011     Ae16 3606   1.908   4.494   1.283
  1011     Ae17 3607   2.100   4.404   1.240
  1011     Ae18 3608   2.148   4.367   1.334
  1011     Ae19 3609   2.143   4.532   1.169
  1011     Ae1a 3610   2.096   4.615   1.224
  1011     Ae1b 3611   2.106   4.521   1.021
  1011     Ae1c 3612   2.041   4.604   0.997
  1011     Ae1d 3613   2.028   4.373   1.006
  1011     Ae1e 3614   2.025   4.319   0.903
  1011     Ae1f 3615   2.124   4.307   1.119
  1011     Ae20 3616   2.227   4.292   1.085
  1011     Ae21 3617   2.111   4.203   1.152
  1011     Ae22 3618   1.867   4.272   1.263
  1011     Ae23 3619   1.876   4.163   1.347
  1011     Ae24 3620   1.941   4.170   1.435
  1011     Ae25 3621   1.723   3.898   1.148
  1011     Ae26 3622   1.780   3.813   1.244
  1011     Ae27 3623   1.761   3.677   1.239
  1011     Ae28 3624   1.799   3.617   1.318
  1011     Ae29 3625   1.688   3.632   1.131
  1011     Ae2a 3626   1.667   3.504   1.054
  1011     Ae2b 3627   1.754   3.459   1.012
  1011     Ae2c 3628   1.603   3.592   0.939
  1011     Ae2d 3629   1.664   3.593   0.847
  1011     Ae2e 3630   1.461   3.528   0.911
  1011     Ae2f 3631   1.414   3.549   0.813
  1011     Ae30 3632   1.375   3.556   1.042
  1011     Ae31 3633   1.275   3.513   1.019
  1011     Ae32 3634   1.367   3.671   1.134
  1011     Ae33 3635   1.434   3.612   1.233
  1011     Ae34 3636   1.455   3.675   1.358
  1011     Ae35 3637   1.529   3.595   1.467
  1011     Ae36 3638   1.468   3.520   1.513
  1011     Ae37 3639   1.578   3.657   1.545
  1011     Ae38 3640   1.609   3.542   1.416
  1011     Ae39 3641   1.412   3.807   1.362
  1011     Ae3a 3642   1.338   3.858   1.263
  1011     Ae3b 3643   1.310   3.798   1.143
  1011     Ae3c 3644   1.212   3.856   1.047
  1011     Ae3d 3645   1.114   3.816   1.076
  1011     Ae3e 3646   1.215   3.963   1.065
  1011     Ae3f 3647   1.220   3.826   0.941
  1011     Ae40 3648   1.445   3.481   1.154
  1011     Ae41 3649   1.370   3.409   1.193
  1011     Ae42 3650   1.563   3.400   1.097
  1011     Ae43 3651   1.586   3.311   1.154
  1011     Ae44 3652   1.501   3.377   0.954
  1011     Ae45 3653   1.573   3.333   0.892
  1011     Ae46 3654   1.418   3.305   0.957
  1011     Ae47 3655   1.641   3.711   1.031
  1011     Ae48 3656   1.658   3.850   1.034
  1011     Ae49 3657   1.617   3.923   0.957
  1011     Ae4a 3658   5.033   3.693   1.539
  1011     Ae4b 3659   5.075   3.798   1.524
  1011     Ae4c 3660   4.942   3.685   1.480
  1011     Ae4d 3661   4.994   3.673   1.636
  1011     Ae4e 3662   5.132   3.583   1.486
  1011     Ae4f 3663   5.193   3.635   1.363
  1011     Ae50 3664   5.122   3.622   1.278
  1011     Ae51 3665   0.847   3.577   1.331
  1011     Ae52 3666   0.801   3.737   1.355
  1011     Ae53 3667   5.045   3.462   1.471
  1011     Ae54 3668   5.078   3.373   1.580
  1011     Ae55 3669   5.012   3.245   1.594
  1011     Ae56 3670   5.044   3.185   1.674
  1011     Ae57 3671   4.920   3.215   1.493
  1011     Ae58 3672   4.821   3.106   1.440
  1011     Ae59 3673   4.734   3.093   1.508
  1011     Ae5a 3674   4.787   3.206   1.325
  1011     Ae5b 3675   4.685   3.243   1.332
  1011     Ae5c 3676   4.830   3.133   1.188
  1011     Ae5d 3677   4.850   3.203   1.102
  1011     Ae5e 3678   4.721   3.016   1.181
  1011     Ae5f 3679   4.622   3.048   1.187
  1011     Ae60 3680   4.756   2.918   1.304
  1011     Ae61 3681   4.681   2.911   1.382
  1011     Ae62 3682   4.876   2.977   1.375
  1011     Ae63 3683   4.934   2.902   1.439
  1011     Ae64 3684   4.945   3.041   1.252
  1011     Ae65 3685   4.984   2.972   1.175
  1011     Ae66 3686   5.034   3.104   1.277
  1011     Ae67 3687   4.887   3.300   1.393
  1011     Ae68 3688   4.935   3.436   1.384
  1011     Ae69 3689   4.918   3.501   1.295
  1011     Ae6a 3690   5.191   3.429   1.652
  1011     Ae6b 3691   0.808   3.546   1.581
  1011     Ae6c 3692   0.927   3.610   1.615
  1011     Ae6d 3693   0.954   3.712   1.579
  1011     Ae6e 3694   0.984   3.555   1.735
  1011     Ae6f 3695   1.080   3.597   1.846
  1011     Ae70 3696   1.181   3.572   1.814
  1011     Ae71 3697   1.021   3.476   1.929
  1011     Ae72 3698   1.096   3.399   1.940
  1011     Ae73 3699   0.975   3.534   2.068
  1011     Ae74 3700   0.971   3.473   2.155
  1011     Ae75 3701   0.858   3.634   2.030
  1011     Ae76 3702   5.199   3.584   1.983
  1011     Ae77 3703   0.806   3.750   2.108
  1011     Ae78 3704   0.864   3.849   2.030
  1011     Ae79 3705   0.920   3.975   2.076
  1011     Ae7a 3706   1.010   4.067   1.993
  1011     Ae7b 3707   1.107   4.054   2.040
  1011     Ae7c 3708   1.005   4.046   1.888
  1011     Ae7d 3709   0.983   4.166   2.006
  1011     Ae7e 3710   0.887   3.993   2.213
  1011     Ae7f 3711   0.837   3.894   2.296
  1011     Ae80 3712   0.800   3.761   2.251
  1011     Ae81 3713   5.190   3.647   2.343
  1011     Ae82 3714   5.115   3.600   2.284
  1011     Ae83 3715   0.848   3.585   2.368
  1011     Ae84 3716   5.152   3.685   2.442
  1011     Ae85 3717   0.920   3.748   1.940
  1011     Ae86 3718   0.876   3.763   1.848
  1011     Ae87 3719   1.077   3.720   1.933
  1011     Ae88 3720   1.149   3.801   1.913
  1011     Ae89 3721   1.088   3.645   2.075
  1011     Ae8a 3722   1.181   3.594   2.094
  1011     Ae8b 3723   1.083   3.713   2.154
  1011     Ae8c 3724   0.941   3.449   1.801
  1011     Ae8d 3725   0.826   3.383   1.768
  1011     Ae8e 3726   0.789   3.299   1.829
  1011     Ae8f 3727   3.339   3.061   3.952
  1011     Ae90 3728   3.380   3.050   3.851
  1011     Ae91 3729   3.424   3.079   4.025
  1011     Ae92 3730   3.299   2.963   3.969
  1011     Ae93 3731   3.225   3.163   3.940
  1011     Ae94 3732   3.134   3.163   4.072
  1011     Ae95 3733   3.095   3.065   4.094
  1011     Ae96 3734   3.050   3.234   4.069
  1011     Ae97 3735   3.194   3.194   4.164
  1011     Ae98 3736   3.133   3.143   3.815
  1011     Ae99 3737   3.150   3.259   3.730
  1011     Ae9a 3738   3.080   3.281   3.607
  1011     Ae9b 3739   3.095   3.370   3.546
  1011     Ae9c 3740   2.981   3.185   3.584
  1011     Ae9d 3741   2.875   3.148   3.485
  1011     Ae9e 3742   2.916   3.133   3.386
  1011     Ae9f 3743   2.846   3.022   3.573
  1011     Aea0 3744   2.860   2.930   3.520
  1011     Aea1 3745   2.691   3.043   3.609
  1011     Aea2 3746   2.655   3.003   3.700
  1011     Aea3 3747   2.623   3.008   3.477
  1011     Aea4 3748   2.630   2.898   3.444
  1011     Aea5 3749   2.664   3.126   3.373
  1011     Aea6 3750   2.723   3.101   3.286
  1011     Aea7 3751   2.746   3.230   3.463
  1011     Aea8 3752   2.746   3.333   3.431
  1011     Aea9 3753   2.684   3.200   3.607
  1011     Aeaa 3754   2.742   3.241   3.689
  1011     Aeab 3755   2.586   3.233   3.627
  1011     Aeac 3756   2.962   3.074   3.659
  1011     Aead 3757   3.045   3.041   3.771
  1011     Aeae 3758   3.022   2.953   3.825
  1011     Aeaf 3759   3.245   3.350   3.785
  1011     Aeb0 3760   3.290   3.304   3.919
  1011     Aeb1 3761   3.368   3.383   4.003
  1011     Aeb2 3762   3.396   3.349   4.102
  1011     Aeb3 3763   3.404   3.509   3.951
  1011     Aeb4 3764   3.394   3.648   4.006
  1011     Aeb5 3765   3.309   3.665   4.081
  1011     Aeb6 3766   3.347   3.700   3.864
  1011     Aeb7 3767   3.242   3.726   3.852
  1011     Aeb8 3768   3.426   3.837   3.832
  1011     Aeb9 3769   3.368   3.906   3.772
  1011     Aeba 3770   3.569   3.801   3.814
  1011     Aebb 3771   3.614   3.895   3.787
  1011     Aebc 3772   3.619   3.687   3.737
  1011     Aebd 3773   3.691   3.643   3.855
  1011     Aebe 3774   3.827   3.629   3.848
  1011     Aebf 3775   3.909   3.640   3.976
  1011     Aec0 3776   3.854   3.585   4.054
  1011     Aec1 3777   4.008   3.599   3.963
  1011     Aec2 3778   3.919   3.743   4.010
  1011     Aec3 3779   3.883   3.642   3.718
  1011     Aec4 3780   3.806   3.680   3.608
  1011     Aec5 3781   3.674   3.695   3.611
  1011     Aec6 3782   3.583   3.703   3.483
  1011     Aec7 3783   3.567   3.599   3.446
  1011     Aec8 3784   3.498   3.769   3.496
  1011     Aec9 3785   3.654   3.743   3.405
  1011     Aeca 3786   3.628   3.743   3.949
  1011     Aecb 3787   3.710   3.810   3.974
  1011     Aecc 3788   3.509   3.746   4.050
  1011     Aecd 3789   3.530   3.752   4.155
  1011     Aece 3790   3.435   3.876   3.991
  1011     Aecf 3791   3.329   3.892   4.029
  1011     Aed0 3792   3.487   3.970   4.002
  1011     Aed1 3793   3.362   3.554   3.823
  1011     Aed2 3794   3.277   3.479   3.738
  1011     Aed3 3795   3.241   3.524   3.646
  1011     Aed4 3796   2.827   2.924   1.281
  1011     Aed5 3797   2.924   2.976   1.296
  1011     Aed6 3798   2.826   2.849   1.362
  1011     Aed7 3799   2.822   2.876   1.191
  1011     Aed8 3800   2.703   3.017   1.296
  1011     Aed9 3801   2.675   3.057   1.443
  1011     Aeda 3802   2.585   3.123   1.448
  1011     Aedb 3803   2.665   2.972   1.507
  1011     Aedc 3804   2.761   3.118   1.480
  1011     Aedd 3805   2.578   2.942   1.238
  1011     Aede 3806   2.553   3.006   1.116
  1011     Aedf 3807   2.442   2.974   1.041
  1011     Aee0 3808   2.405   3.045   0.962
  1011     Aee1 3809   2.365   2.865   1.084
  1011     Aee2 3810   2.217   2.840   1.085
  1011     Aee3 3811   2.197   2.782   0.993
  1011     Aee4 3812   2.246   2.764   1.220
  1011     Aee5 3813   2.229   2.659   1.204
  1011     Aee6 3814   2.147   2.827   1.318
  1011     Aee7 3815   2.174   2.807   1.422
  1011     Aee8 3816   2.015   2.779   1.278
  1011     Aee9 3817   2.023   2.669   1.266
  1011     Aeea 3818   1.990   2.853   1.146
  1011     Aeeb 3819   1.963   2.797   1.062
  1011     Aeec 3820   2.107   2.944   1.116
  1011     Aeed 3821   2.081   3.028   1.059
  1011     Aeee 3822   2.147   2.973   1.263
  1011     Aeef 3823   2.079   3.042   1.308
  1011     Aef0 3824   2.249   3.021   1.274
  1011     Aef1 3825   2.387   2.804   1.200
  1011     Aef2 3826   2.497   2.839   1.289
  1011     Aef3 3827   2.503   2.810   1.391
  1011     Aef4 3828   2.633   3.131   1.099
  1011     Aef5 3829   2.720   3.148   1.209
  1011     Aef6 3830   2.794   3.266   1.239
  1011     Aef7 3831   2.862   3.287   1.320
  1011     Aef8 3832   2.756   3.373   1.155
  1011     Aef9 3833   2.798   3.517   1.111
  1011     Aefa 3834   2.755   3.597   1.175
  1011     Aefb 3835   2.701   3.497   0.990
  1011     Aefc 3836   2.609   3.553   0.986
  1011     Aefd 3837   2.778   3.534   0.858
  1011     Aefe 3838   2.724   3.562   5.196
  1011     Aeff 3839   2.897   3.438   0.841
  1011     Af00 3840   2.947   3.455   5.176
  1011     Af01 3841   2.895   3.289   0.874
  1011     Af02 3842   2.977   3.300   0.985
  1011     Af03 3843   3.061   3.197   1.028
  1011     Af04 3844   3.174   3.220   1.119
  1011     Af05 3845   3.165   3.317   1.166
  1011     Af06 3846   3.268   3.215   1.065
  1011     Af07 3847   3.169   3.143   1.206
  1011     Af08 3848   3.060   3.080   0.954
  1011     Af09 3849   2.983   3.081   0.840
  1011     Af0a 3850   2.904   3.185   0.789
  1011     Af0b 3851   2.851   3.195   5.084
  1011     Af0c 3852   2.880   3.288   5.026
  1011     Af0d 3853   2.893   3.118   5.018
  1011     Af0e 3854   2.743   3.180   5.080
  1011     Af0f 3855   2.996   3.453   0.967
  1011     Af10 3856   3.098   3.471   0.954
  1011     Af11 3857   2.938   3.573   1.049
  1011     Af12 3858   2.997   3.631   1.122
  1011     Af13 3859   2.865   3.649   0.919
  1011     Af14 3860   2.805   3.728   0.954
  1011     Af15 3861   2.938   3.686   0.846
  1011     Af16 3862   2.676   3.357   1.047
  1011     Af17 3863   2.619   3.239   1.006
  1011     Af18 3864   2.541   3.244   0.928
  1011     Af19 3865   3.513   3.181   4.899
  1011     Af1a 3866   3.443   3.265   4.918
  1011     Af1b 3867   3.535   3.172   4.787
  1011     Af1c 3868   3.615   3.192   4.945
  1011     Af1d 3869   3.447   3.040   4.936
  1011     Af1e 3870   3.415   3.057   5.089
  1011     Af1f 3871   3.506   3.076   5.143
  1011     Af20 3872   3.354   2.975   5.126
  1011     Af21 3873   3.363   3.149   5.096
  1011     Af22 3874   3.550   2.932   4.885
  1011     Af23 3875   3.494   2.866   4.780
  1011     Af24 3876   3.563   2.751   4.729
  1011     Af25 3877   3.514   2.673   4.665
  1011     Af26 3878   3.685   2.725   4.780
  1011     Af27 3879   3.752   2.598   4.803
  1011     Af28 3880   3.813   2.567   4.714
  1011     Af29 3881   3.813   2.670   4.933
  1011     Af2a 3882   3.923   2.668   4.926
  1011     Af2b 3883   3.769   2.577   5.046
  1011     Af2c 3884   3.757   2.619   5.150
  1011     Af2d 3885   3.857   2.451   5.029
  1011     Af2e 3886   3.966   2.474   5.027
  1011     Af2f 3887   3.805   2.386   4.894
  1011     Af30 3888   3.873   2.377   4.806
  1011     Af31 3889   3.688   2.471   4.853
  1011     Af32 3890   3.599   2.429   4.797
  1011     Af33 3891   3.635   2.527   4.985
  1011     Af34 3892   3.597   2.448   5.056
  1011     Af35 3893   3.569   2.612   4.982
  1011     Af36 3894   3.739   2.793   4.885
  1011     Af37 3895   3.671   2.898   4.952
  1011     Af38 3896   3.707   2.941   5.042
  1011     Af39 3897   3.358   2.922   4.755
  1011     Af3a 3898   3.324   3.026   4.845
  1011     Af3b 3899   3.185   3.073   4.857
  1011     Af3c 3900   3.157   3.156   4.919
  1011     Af3d 3901   3.094   3.011   4.766
  1011     Af3e 3902   2.946   2.986   4.742
  1011     Af3f 3903   2.907   2.948   4.838
  1011     Af40 3904   2.996   2.878   4.638
  1011     Af41 3905   2.971   2.767   4.658
  1011     Af42 3906   2.932   2.912   4.500
  1011     Af43 3907   2.930   2.821   4.437
  1011     Af44 3908   2.990   3.056   4.454
  1011     Af45 3909   2.962   3.084   4.353
  1011     Af46 3910   3.118   3.130   4.479
  1011     Af47 3911   3.059   3.223   4.560
  1011     Af48 3912   3.128   3.327   4.630
  1011     Af49 3913   3.069   3.427   4.731
  1011     Af4a 3914   3.064   3.519   4.682
  1011     Af4b 3915   3.131   3.440   4.820
  1011     Af4c 3916   2.971   3.403   4.755
  1011     Af4d 3917   3.264   3.324   4.595
  1011     Af4e 3918   3.315   3.242   4.499
  1011     Af4f 3919   3.250   3.136   4.439
  1011     Af50 3920   3.323   3.032   4.354
  1011     Af51 3921   3.251   2.985   4.283
  1011     Af52 3922   3.369   2.959   4.416
  1011     Af53 3923   3.403   3.077   4.298
  1011     Af54 3924   2.924   3.155   4.555
  1011     Af55 3925   2.852   3.222   4.507
  1011     Af56 3926   2.843   3.069   4.662
  1011     Af57 3927   2.769   3.126   4.721
  1011     Af58 3928   2.792   2.964   4.557
  1011     Af59 3929   2.737   2.882   4.600
  1011     Af5a 3930   2.732   3.002   4.475
  1011     Af5b 3931   3.134   2.911   4.683
  1011     Af5c 3932   3.258   2.854   4.677
  1011     Af5d 3933   3.290   2.769   4.612
  1011     Af5e 3934   2.531   1.251   3.115
  1011     Af5f 3935   2.548   1.147   3.133
  1011     Af60 3936   2.463   1.272   3.197
  1011     Af61 3937   2.635   1.295   3.117
  1011     Af62 3938   2.469   1.294   2.981
  1011     Af63 3939   2.589   1.322   2.885
  1011     Af64 3940   2.647   1.411   2.921
  1011     Af65 3941   2.546   1.349   2.788
  1011     Af66 3942   2.661   1.240   2.889
  1011     Af67 3943   2.376   1.413   3.003
  1011     Af68 3944   2.248   1.370   2.956
  1011     Af69 3945   2.140   1.455   2.957
  1011     Af6a 3946   2.046   1.428   2.898
  1011     Af6b 3947   2.165   1.583   3.020
  1011     Af6c 3948   2.103   1.728   3.024
  1011     Af6d 3949   2.010   1.731   3.093
  1011     Af6e 3950   2.247   1.769   3.072
  1011     Af6f 3951   2.241   1.802   3.176
  1011     Af70 3952   2.301   1.875   2.970
  1011     Af71 3953   2.406   1.885   2.957
  1011     Af72 3954   2.210   1.997   2.984
  1011     Af73 3955   2.211   2.045   3.089
  1011     Af74 3956   2.066   1.942   2.938
  1011     Af75 3957   1.987   1.957   3.008
  1011     Af76 3958   2.081   1.801   2.886
  1011     Af77 3959   2.007   1.764   2.817
  1011     Af78 3960   2.232   1.809   2.839
  1011     Af79 3961   2.275   1.715   2.814
  1011     Af7a 3962   2.254   1.874   2.755
  1011     Af7b 3963   2.283   1.621   3.065
  1011     Af7c 3964   2.399   1.544   3.051
  1011     Af7d 3965   2.496   1.596   3.070
  1011     Af7e 3966   2.250   1.237   2.912
  1011     Af7f 3967   2.377   1.183   2.915
  1011     Af80 3968   2.409   1.057   2.857
  1011     Af81 3969   2.515   1.033   2.843
  1011     Af82 3970   2.298   0.981   2.818
  1011     Af83 3971   2.269   0.886   2.702
  1011     Af84 3972   2.330   0.914   2.615
  1011     Af85 3973   2.120   0.942   2.706
  1011     Af86 3974   2.082   1.005   2.627
  1011     Af87 3975   2.025   0.817   2.696
  1011     Af88 3976   1.919   0.828   2.665
  1011     Af89 3977   2.050   5.176   2.832
  1011     Af8a 3978   2.032   0.826   2.909
  1011     Af8b 3979   2.001   5.045   2.884
  1011     Af8c 3980   2.129   4.999   2.888
  1011     Af8d 3981   2.168   4.882   2.962
  1011     Af8e 3982   2.310   4.848   3.005
  1011     Af8f 3983   2.376   4.938   2.987
  1011     Af90 3984   2.334   4.826   3.112
  1011     Af91 3985   2.343   4.766   2.939
  1011     Af92 3986   2.055   4.814   3.015
  1011     Af93 3987   1.924   4.857   3.001
  1011     Af94 3988   1.889   4.985   2.947
  1011     Af95 3989   1.752   5.057   2.973
  1011     Af96 3990   1.680   4.986   3.019
  1011     Af97 3991   1.760   5.129   3.055
  1011     Af98 3992   1.687   5.099   2.896
  1011     Af99 3993   2.201   5.131   2.836
  1011     Af9a 3994   2.262   5.185   2.913
  1011     Af9b 3995   2.255   5.155   2.699
  1011     Af9c 3996   2.334   5.090   2.669
  1011     Af9d 3997   2.120   5.159   2.612
  1011     Af9e 3998   2.149   5.205   2.510
  1011     Af9f 3999   2.097   5.055   2.590
  1011     Afa0 4000   2.171   1.027   2.820
  1011     Afa1 4001   2.147   1.158   2.860
  1011     Afa2 4002   2.046   1.188   2.847
  1011     Afa3 4003   4.547   4.291   1.847
  1011     Afa4 4004   4.602   4.256   1.760
  1011     Afa5 4005   4.485   4.205   1.881
  1011     Afa6 4006   4.614   4.304   1.927
  1011     Afa7 4007   4.452   4.414   1.816
  1011     Afa8 4008   4.327   4.422   1.905
  1011     Afa9 4009   4.276   4.323   1.882
  1011     Afaa 4010   4.266   4.510   1.877
  1011     Afab 4011   4.353   4.439   2.008
  1011     Afac 4012   4.405   4.403   1.668
  1011     Afad 4013   4.442   4.522   1.609
  1011     Afae 4014   4.438   4.540   1.472
  1011     Afaf 4015   4.480   4.625   1.417
  1011     Afb0 4016   4.389   4.430   1.401
  1011     Afb1 4017   4.371   4.391   1.263
  1011     Afb2 4018   4.468   4.366   1.215
  1011     Afb3 4019   4.297   4.260   1.323
  1011     Afb4 4020   4.355   4.170   1.316
  1011     Afb5 4021   4.156   4.260   1.248
  1011     Afb6 4022   4.078   4.204   1.299
  1011     Afb7 4023   4.201   4.229   1.110
  1011     Afb8 4024   4.257   4.136   1.103
  1011     Afb9 4025   4.277   4.359   1.053
  1011     Afba 4026   4.380   4.345   1.014
  1011     Afbb 4027   4.272   4.458   1.165
  1011     Afbc 4028   4.280   4.567   1.137
  1011     Afbd 4029   4.129   4.418   1.230
  1011     Afbe 4030   4.052   4.457   1.161
  1011     Afbf 4031   4.108   4.469   1.324
  1011     Afc0 4032   4.333   4.319   1.458
  1011     Afc1 4033   4.344   4.294   1.599
  1011     Afc2 4034   4.324   4.195   1.648
  1011     Afc3 4035   4.512   4.606   1.706
  1011     Afc4 4036   4.530   4.542   1.830
  1011     Afc5 4037   4.609   4.599   1.931
  1011     Afc6 4038   4.616   4.554   2.030
  1011     Afc7 4039   4.673   4.724   1.901
  1011     Afc8 4040   4.724   4.858   1.971
  1011     Afc9 4041   4.660   4.889   2.058
  1011     Afca 4042   4.676   4.928   1.831
  1011     Afcb 4043   4.592   4.993   1.846
  1011     Afcc 4044   4.789   5.009   1.779
  1011     Afcd 4045   4.758   5.085   1.703
  1011     Afce 4046   4.901   4.915   1.750
  1011     Afcf 4047   4.976   4.955   1.683
  1011     Afd0 4048   4.915   4.760   1.727
  1011     Afd1 4049   4.972   4.734   1.851
  1011     Afd2 4050   5.053   4.620   1.888
  1011     Afd3 4051   5.146   4.608   2.004
  1011     Afd4 4052   5.128   4.503   2.047
  1011     Afd5 4053   0.817   4.628   1.966
  1011     Afd6 4054   5.118   4.690   2.075
  1011     Afd7 4055   5.034   4.523   1.781
  1011     Afd8 4056   4.959   4.534   1.668
  1011     Afd9 4057   4.903   4.660   1.628
  1011     Afda 4058   4.845   4.686   1.485
  1011     Afdb 4059   4.914   4.737   1.420
  1011     Afdc 4060   4.826   4.589   1.432
  1011     Afdd 4061   4.757   4.743   1.492
  1011     Afde 4062   4.958   4.880   1.891
  1011     Afdf 4063   5.066   4.920   1.908
  1011     Afe0 4064   4.863   4.934   1.992
  1011     Afe1 4065   4.904   4.933   2.097
  1011     Afe2 4066   4.846   5.070   1.911
  1011     Afe3 4067   4.940   5.124   1.906
  1011     Afe4 4068   4.771   5.143   1.949
  1011     Afe5 4069   4.629   4.792   1.788
  1011     Afe6 4070   4.540   4.743   1.688
  1011     Afe7 4071   4.507   4.800   1.596
  1011     Afe8 4072   3.592   3.687   2.337
  1011     Afe9 4073   3.510   3.757   2.347
  1011     Afea 4074   3.582   3.625   2.430
  1011     Afeb 4075   3.692   3.730   2.334
  1011     Afec 4076   3.571   3.591   2.215
  1011     Afed 4077   3.428   3.536   2.217
  1011     Afee 4078   3.351   3.620   2.219
  1011     Afef 4079   3.411   3.463   2.296
  1011     Aff0 4080   3.395   3.487   2.122
  1011     Aff1 4081   3.664   3.468   2.218
  1011     Aff2 4082   3.731   3.461   2.093
  1011     Aff3 4083   3.863   3.401   2.089
  1011     Aff4 4084   3.928   3.432   2.016
  1011     Aff5 4085   3.903   3.325   2.207
  1011     Aff6 4086   4.027   3.293   2.288
  1011     Aff7 4087   4.084   3.378   2.283
  1011     Aff8 4088   3.931   3.284   2.409
  1011     Aff9 4089   3.939   3.360   2.494
  1011     Affa 4090   3.959   3.139   2.475
  1011     Affb 4091   3.883   3.093   2.539
  1011     Affc 4092   4.091   3.169   2.540
  1011     Affd 4093   4.085   3.250   2.612
  1011     Affe 4094   4.196   3.195   2.416
  1011     Afff 4095   4.252   3.289   2.403
  1011    A1000 4096   4.111   3.161   2.288
  1011    A1001 4097   4.166   3.138   2.196
  1011    A1002 4098   4.001   3.061   2.349
  1011    A1003 4099   4.038   2.958   2.378
  1011    A1004 4100   3.912   3.040   2.290
  1011    A1005 4101   3.819   3.318   2.318
  1011    A1006 4102   3.710   3.397   2.332
  1011    A1007 4103   3.671   3.410   2.433
  1011    A1008 4104   3.672   3.564   2.002
  1011    A1009 4105   3.603   3.662   2.082
  1011    A100a 4106   3.608   3.803   2.051
  1011    A100b 4107   3.590   3.885   2.117
  1011    A100c 4108   3.671   3.828   1.930
  1011    A100d 4109   3.790   3.914   1.895
  1011    A100e 4110   3.862   3.895   1.978
  1011    A100f 4111   3.805   3.811   1.767
  1011    A1010 4112   3.905   3.769   1.770
  1011    A1011 4113   3.778   3.906   1.641
  1011    A1012 4114   3.743   3.870   1.543
  1011    A1013 4115   3.905   3.985   1.619
  1011    A1014 4116   3.900   4.055   1.531
  1011    A1015 4117   4.043   3.918   1.630
  1011    A1016 4118   4.065   3.957   1.759
  1011    A1017 4119   4.146   3.873   1.842
  1011    A1018 4120   4.153   3.881   1.996
  1011    A1019 4121   4.050   3.895   2.032
  1011    A101a 4122   4.225   3.959   2.030
  1011    A101b 4123   4.204   3.789   2.036
  1011    A101c 4124   4.199   3.768   1.769
  1011    A101d 4125   4.184   3.741   1.635
  1011    A101e 4126   4.105   3.816   1.558
  1011    A101f 4127   4.078   3.775   1.420
  1011    A1020 4128   4.168   3.734   1.372
  1011    A1021 4129   4.052   3.870   1.367
  1011    A1022 4130   3.993   3.703   1.425
  1011    A1023 4131   3.943   4.049   1.763
  1011    A1024 4132   3.965   4.156   1.757
  1011    A1025 4133   3.804   4.047   1.836
  1011    A1026 4134   3.768   4.136   1.891
  1011    A1027 4135   3.705   4.025   1.713
  1011    A1028 4136   3.690   4.115   1.656
  1011    A1029 4137   3.604   3.994   1.735
  1011    A102a 4138   3.699   3.731   1.836
  1011    A102b 4139   3.715   3.592   1.869
  1011    A102c 4140   3.757   3.522   1.807
  1011    A102d 4141   2.603   1.723   1.539
  1011    A102e 4142   2.706   1.694   1.563
  1011    A102f 4143   2.568   1.826   1.557
  1011    A1030 4144   2.549   1.675   1.619
  1011    A1031 4145   2.563   1.656   1.407
  1011    A1032 4146   2.408   1.657   1.395
  1011    A1033 4147   2.371   1.614   1.302
  1011    A1034 4148   2.377   1.757   1.402
  1011    A1035 4149   2.367   1.615   1.482
  1011    A1036 4150   2.625   1.517   1.391
  1011    A1037 4151   2.746   1.538   1.314
  1011    A1038 4152   2.830   1.434   1.286
  1011    A1039 4153   2.908   1.447   1.216
  1011    A103a 4154   2.805   1.313   1.355
  1011    A103b 4155   2.839   1.169   1.343
  1011    A103c 4156   2.924   1.146   1.411
  1011    A103d 4157   2.696   1.140   1.414
  1011    A103e 4158   2.699   1.094   1.512
  1011    A103f 4159   2.614   1.053   1.328
  1011    A1040 4160   2.504   1.050   1.348
  1011    A1041 4161   2.686   0.923   1.332
  1011    A1042 4162   2.629   0.849   1.272
  1011    A1043 4163   2.830   0.950   1.270
  1011    A1044 4164   2.852   0.874   1.189
  1011    A1045 4165   2.826   1.086   1.213
  1011    A1046 4166   2.898   1.104   1.133
  1011    A1047 4167   2.667   1.105   1.190
  1011    A1048 4168   2.618   1.056   1.102
  1011    A1049 4169   2.643   1.211   1.172
  1011    A104a 4170   2.688   1.291   1.419
  1011    A104b 4171   2.592   1.390   1.442
  1011    A104c 4172   2.490   1.368   1.482
  1011    A104d 4173   2.741   1.664   1.249
  1011    A104e 4174   2.632   1.737   1.295
  1011    A104f 4175   2.602   1.870   1.244
  1011    A1050 4176   2.524   1.929   1.278
  1011    A1051 4177   2.688   1.909   1.146
  1011    A1052 4178   2.707   2.030   1.050
  1011    A1053 4179   2.620   2.047   0.992
  1011    A1054 4180   2.823   1.948   0.990
  1011    A1055 4181   2.799   1.906   0.888
  1011    A1056 4182   2.947   2.045   0.973
  1011    A1057 4183   3.013   2.011   0.893
  1011    A1058 4184   2.996   2.081   1.115
  1011    A1059 4185   3.091   2.143   1.108
  1011    A105a 4186   2.999   1.994   1.231
  1011    A105b 4187   2.897   2.051   1.298
  1011    A105c 4188   2.868   2.024   1.430
  1011    A105d 4189   2.767   2.104   1.507
  1011    A105e 4190   2.669   2.047   1.523
  1011    A105f 4191   2.806   2.126   1.608
  1011    A1060 4192   2.739   2.206   1.461
  1011    A1061 4193   2.945   1.914   1.477
  1011    A1062 4194   3.037   1.849   1.398
  1011    A1063 4195   3.079   1.888   1.273
  1011    A1064 4196   3.182   1.811   1.194
  1011    A1065 4197   3.249   1.883   1.142
  1011    A1066 4198   3.129   1.750   1.123
  1011    A1067 4199   3.237   1.744   1.261
  1011    A1068 4200   2.876   2.153   1.188
  1011    A1069 4201   2.899   2.252   1.226
  1011    A106a 4202   2.764   2.172   1.070
  1011    A106b 4203   2.686   2.255   1.083
  1011    A106c 4204   2.857   2.177   0.946
  1011    A106d 4205   2.812   2.182   0.846
  1011    A106e 4206   2.924   2.268   0.954
  1011    A106f 4207   2.783   1.835   1.091
  1011    A1070 4208   2.823   1.714   1.144
  1011    A1071 4209   2.903   1.661   1.093
  1011    A1072 4210   4.960   3.529   3.030
  1011    A1073 4211   5.059   3.515   3.078
  1011    A1074 4212   4.910   3.431   3.032
  1011    A1075 4213   4.966   3.552   2.919
  1011    A1076 4214   4.896   3.637   3.106
  1011    A1077 4215   4.956   3.772   3.056
  1011    A1078 4216   5.066   3.769   3.046
  1011    A1079 4217   4.941   3.854   3.125
  1011    A107a 4218   4.929   3.797   2.955
  1011    A107b 4219   4.911   3.612   3.260
  1011    A107c 4220   4.774   3.614   3.311
  1011    A107d 4221   4.755   3.602   3.452
  1011    A107e 4222   4.651   3.600   3.497
  1011    A107f 4223   4.875   3.585   3.527
  1011    A1080 4224   4.924   3.593   3.670
  1011    A1081 4225   4.908   3.497   3.722
  1011    A1082 4226   5.070   3.592   3.603
  1011    A1083 4227   5.128   3.503   3.607
  1011    A1084 4228   5.137   3.716   3.666
  1011    A1085 4229   0.787   3.744   3.607
  1011    A1086 4230   5.164   3.674   3.814
  1011    A1087 4231   0.790   3.582   3.813
  1011    A1088 4232   5.020   3.672   3.874
  1011    A1089 4233   5.015   3.728   3.975
  1011    A108a 4234   4.925   3.717   3.759
  1011    A108b 4235   4.826   3.753   3.792
  1011    A108c 4236   5.020   3.815   3.679
  1011    A108d 4237   5.040   3.909   3.733
  1011    A108e 4238   4.980   3.848   3.587
  1011    A108f 4239   5.000   3.593   3.470
  1011    A1090 4240   5.029   3.604   3.335
  1011    A1091 4241   5.123   3.605   3.290
  1011    A1092 4242   4.677   3.620   3.200
  1011    A1093 4243   4.742   3.634   3.074
  1011    A1094 4244   4.684   3.632   2.953
  1011    A1095 4245   4.727   3.642   2.857
  1011    A1096 4246   4.545   3.626   2.959
  1011    A1097 4247   4.424   3.627   2.868
  1011    A1098 4248   4.416   3.727   2.812
  1011    A1099 4249   4.341   3.615   3.005
  1011    A109a 4250   4.289   3.706   3.035
  1011    A109b 4251   4.229   3.505   2.984
  1011    A109c 4252   4.141   3.518   3.041
  1011    A109d 4253   4.302   3.362   2.967
  1011    A109e 4254   4.223   3.284   2.960
  1011    A109f 4255   4.425   3.310   3.038
  1011    A10a0 4256   4.505   3.339   2.925
  1011    A10a1 4257   4.640   3.291   2.934
  1011    A10a2 4258   4.732   3.301   2.822
  1011    A10a3 4259   4.807   3.375   2.841
  1011    A10a4 4260   4.675   3.348   2.731
  1011    A10a5 4261   4.773   3.203   2.778
  1011    A10a6 4262   4.680   3.248   3.067
  1011    A10a7 4263   4.594   3.219   3.164
  1011    A10a8 4264   4.452   3.252   3.158
  1011    A10a9 4265   4.351   3.211   3.258
  1011    A10aa 4266   4.390   3.198   3.360
  1011    A10ab 4267   4.314   3.117   3.227
  1011    A10ac 4268   4.273   3.292   3.269
  1011    A10ad 4269   4.392   3.377   2.836
  1011    A10ae 4270   4.383   3.296   2.763
  1011    A10af 4271   4.353   3.515   2.779
  1011    A10b0 4272   4.364   3.523   2.671
  1011    A10b1 4273   4.202   3.530   2.832
  1011    A10b2 4274   4.140   3.453   2.776
  1011    A10b3 4275   4.156   3.623   2.806
  1011    A10b4 4276   4.475   3.609   3.078
  1011    A10b5 4277   4.530   3.608   3.209
  1011    A10b6 4278   4.470   3.603   3.294
  1011    A10b7 4279   0.893   2.569   2.436
  1011    A10b8 4280   0.928   2.518   2.524
  1011    A10b9 4281   0.921   2.671   2.453
  1011    A10ba 4282   5.212   2.566   2.436
  1011    A10bb 4283   0.960   2.521   2.302
  1011    A10bc 4284   0.885   2.385   2.274
  1011    A10bd 4285   0.931   2.306   2.337
  1011    A10be 4286   0.787   2.387   2.304
  1011    A10bf 4287   0.883   2.363   2.163
  1011    A10c0 4288   1.116   2.508   2.308
  1011    A10c1 4289   1.169   2.620   2.235
  1011    A10c2 4290   1.308   2.633   2.200
  1011    A10c3 4291   1.340   2.715   2.140
  1011    A10c4 4292   1.381   2.532   2.251
  1011    A10c5 4293   1.521   2.475   2.232
  1011    A10c6 4294   1.595   2.536   2.282
  1011    A10c7 4295   1.476   2.357   2.324
  1011    A10c8 4296   1.527   2.343   2.421
  1011    A10c9 4297   1.504   2.222   2.245
  1011    A10ca 4298   1.459   2.130   2.274
  1011    A10cb 4299   1.660   2.220   2.244
  1011    A10cc 4300   1.702   2.242   2.348
  1011    A10cd 4301   1.709   2.339   2.148
  1011    A10ce 4302   1.774   2.413   2.203
  1011    A10cf 4303   1.572   2.406   2.104
  1011    A10d0 4304   1.580   2.480   2.022
  1011    A10d1 4305   1.480   2.280   2.094
  1011    A10d2 4306   1.521   2.209   2.023
  1011    A10d3 4307   1.378   2.311   2.070
  1011    A10d4 4308   1.340   2.430   2.330
  1011    A10d5 4309   1.202   2.407   2.356
  1011    A10d6 4310   1.169   2.319   2.409
  1011    A10d7 4311   1.055   2.689   2.169
  1011    A10d8 4312   0.931   2.628   2.189
  1011    A10d9 4313   0.834   2.628   2.095
  1011    A10da 4314   5.186   2.550   2.097
  1011    A10db 4315   0.849   2.715   1.990
  1011    A10dc 4316   0.831   2.698   1.837
  1011    A10dd 4317   0.864   2.597   1.801
  1011    A10de 4318   0.950   2.796   1.826
  1011    A10df 4319   1.043   2.746   1.797
  1011    A10e0 4320   0.921   2.913   1.736
  1011    A10e1 4321   1.004   2.971   1.691
  1011    A10e2 4322   0.805   2.993   1.811
  1011    A10e3 4323   0.814   3.091   1.760
  1011    A10e4 4324   5.192   3.010   1.957
  1011    A10e5 4325   5.088   2.926   1.943
  1011    A10e6 4326   5.029   2.859   2.052
  1011    A10e7 4327   4.938   2.742   2.050
  1011    A10e8 4328   4.950   2.678   2.135
  1011    A10e9 4329   4.966   2.674   1.968
  1011    A10ea 4330   4.833   2.778   2.044
  1011    A10eb 4331   5.071   2.913   2.176
  1011    A10ec 4332   5.165   3.018   2.181
  1011    A10ed 4333   0.804   3.071   2.076
  1011    A10ee 4334   0.931   3.159   2.096
  1011    A10ef 4335   0.983   3.155   2.196
  1011    A10f0 4336   0.913   3.268   2.081
  1011    A10f1 4337   1.004   3.152   2.018
  1011    A10f2 4338   5.112   2.896   1.800
  1011    A10f3 4339   5.029   2.938   1.737
  1011    A10f4 4340   5.157   2.760   1.734
  1011    A10f5 4341   5.074   2.704   1.702
  1011    A10f6 4342   0.829   2.826   1.630
  1011    A10f7 4343   0.879   2.746   1.587
  1011    A10f8 4344   5.209   2.891   1.556
  1011    A10f9 4345   0.959   2.797   1.976
  1011    A10fa 4346   1.072   2.765   2.049
  1011    A10fb 4347   1.168   2.786   2.010
  1011    A10fc 4348   3.782   2.885   1.163
  1011    A10fd 4349   3.785   2.830   1.255
  1011    A10fe 4350   3.834   2.823   1.083
  1011    A10ff 4351   3.847   2.973   1.186
  1011    A1100 4352   3.632   2.917   1.150
  1011    A1101 4353   3.587   2.933   1.005
  1011    A1102 4354   3.493   2.988   0.991
  1011    A1103 4355   3.660   2.993   0.949
  1011    A1104 4356   3.577   2.825   0.974
  1011    A1105 4357   3.597   3.047   1.232
  1011    A1106 4358   3.491   3.013   1.319
  1011    A1107 4359   3.430   3.117   1.393
  1011    A1108 4360   3.351   3.094   1.469
  1011    A1109 4361   3.486   3.246   1.379
  1011    A110a 4362   3.466   3.393   1.420
  1011    A110b 4363   3.471   3.405   1.526
  1011    A110c 4364   3.594   3.425   1.330
  1011    A110d 4365   3.683   3.451   1.375
  1011    A110e 4366   3.540   3.539   1.232
  1011    A110f 4367   3.599   3.561   1.140
  1011    A1110 4368   3.519   3.647   1.336
  1011    A1111 4369   3.594   3.658   1.417
  1011    A1112 4370   3.378   3.609   1.401
  1011    A1113 4371   3.385   3.611   1.506
  1011    A1114 4372   3.353   3.465   1.351
  1011    A1115 4373   3.254   3.425   1.361
  1011    A1116 4374   3.399   3.483   1.205
  1011    A1117 4375   3.329   3.552   1.152
  1011    A1118 4376   3.410   3.396   1.145
  1011    A1119 4377   3.593   3.272   1.291
  1011    A111a 4378   3.660   3.178   1.216
  1011    A111b 4379   3.733   3.210   1.146
  1011    A111c 4380   3.470   2.866   1.318
  1011    A111d 4381   3.547   2.801   1.216
  1011    A111e 4382   3.544   2.662   1.196
  1011    A111f 4383   3.602   2.606   1.121
  1011    A1120 4384   3.457   2.593   1.274
  1011    A1121 4385   3.431   2.450   1.315
  1011    A1122 4386   3.527   2.399   1.339
  1011    A1123 4387   3.345   2.514   1.433
  1011    A1124 4388   3.394   2.498   1.528
  1011    A1125 4389   3.209   2.439   1.422
  1011    A1126 4390   3.126   2.485   1.484
  1011    A1127 4391   3.240   2.285   1.449
  1011    A1128 4392   3.147   2.233   1.466
  1011    A1129 4393   3.354   2.226   1.528
  1011    A112a 4394   3.422   2.186   1.413
  1011    A112b 4395   3.545   2.123   1.409
  1011    A112c 4396   3.614   2.077   1.280
  1011    A112d 4397   3.597   1.970   1.275
  1011    A112e 4398   3.721   2.089   1.275
  1011    A112f 4399   3.565   2.123   1.189
  1011    A1130 4400   3.579   2.080   1.539
  1011    A1131 4401   3.500   2.093   1.649
  1011    A1132 4402   3.376   2.164   1.648
  1011    A1133 4403   3.282   2.184   1.769
  1011    A1134 4404   3.336   2.248   1.840
  1011    A1135 4405   3.248   2.095   1.827
  1011    A1136 4406   3.195   2.238   1.741
  1011    A1137 4407   3.321   2.238   1.320
  1011    A1138 4408   3.266   2.157   1.275
  1011    A1139 4409   3.341   2.360   1.233
  1011    A113a 4410   3.364   2.347   1.129
  1011    A113b 4411   3.204   2.432   1.264
  1011    A113c 4412   3.191   2.532   1.210
  1011    A113d 4413   3.123   2.373   1.224
  1011    A113e 4414   3.381   2.647   1.376
  1011    A113f 4415   3.380   2.792   1.404
  1011    A1140 4416   3.322   2.841   1.485
  1011    A1141 4417   1.248   1.818   0.931
  1011    A1142 4418   1.265   1.884   0.843
  1011    A1143 4419   1.324   1.745   0.935
  1011    A1144 4420   1.150   1.775   0.918
  1011    A1145 4421   1.257   1.891   1.059
  1011    A1146 4422   1.200   1.797   1.171
  1011    A1147 4423   1.211   1.842   1.273
  1011    A1148 4424   1.251   1.703   1.172
  1011    A1149 4425   1.101   1.762   1.149
  1011    A114a 4426   1.162   2.011   1.050
  1011    A114b 4427   1.242   2.128   1.072
  1011    A114c 4428   1.181   2.255   1.080
  1011    A114d 4429   1.224   2.340   1.124
  1011    A114e 4430   1.041   2.240   1.065
  1011    A114f 4431   0.924   2.307   1.140
  1011    A1150 4432   0.908   2.407   1.097
  1011    A1151 4433   0.831   2.192   1.078
  1011    A1152 4434   5.195   2.220   1.001
  1011    A1153 4435   5.186   2.132   1.201
  1011    A1154 4436   5.147   2.026   1.183
  1011    A1155 4437   5.103   2.256   1.243
  1011    A1156 4438   5.051   2.302   1.157
  1011    A1157 4439   5.195   2.354   1.320
  1011    A1158 4440   5.188   2.458   1.279
  1011    A1159 4441   0.903   2.296   1.295
  1011    A115a 4442   0.971   2.342   1.366
  1011    A115b 4443   0.867   2.142   1.306
  1011    A115c 4444   0.953   2.082   1.274
  1011    A115d 4445   0.841   2.095   1.410
  1011    A115e 4446   0.967   2.134   1.020
  1011    A115f 4447   1.022   2.013   1.027
  1011    A1160 4448   0.969   1.923   1.026
  1011    A1161 4449   1.386   2.090   1.084
  1011    A1162 4450   1.400   1.950   1.080
  1011    A1163 4451   1.521   1.885   1.088
  1011    A1164 4452   1.538   1.774   1.085
  1011    A1165 4453   1.634   1.969   1.079
  1011    A1166 4454   1.770   1.957   1.014
  1011    A1167 4455   1.842   1.925   1.094
  1011    A1168 4456   1.764   2.109   0.999
  1011    A1169 4457   1.837   2.162   1.064
  1011    A116a 4458   1.798   2.135   0.842
  1011    A116b 4459   1.842   2.227   0.816
  1011    A116c 4460   1.668   2.081   5.202
  1011    A116d 4461   1.580   2.142   0.796
  1011    A116e 4462   1.650   2.027   5.052
  1011    A116f 4463   1.633   1.896   5.084
  1011    A1170 4464   1.545   1.809   5.014
  1011    A1171 4465   1.507   1.680   5.071
  1011    A1172 4466   1.397   1.679   5.077
  1011    A1173 4467   1.558   1.650   5.162
  1011    A1174 4468   1.532   1.601   4.999
  1011    A1175 4469   1.493   1.866   4.907
  1011    A1176 4470   1.520   1.992   4.864
  1011    A1177 4471   1.600   2.085   4.934
  1011    A1178 4472   1.587   2.226   4.898
  1011    A1179 4473   1.489   2.273   4.926
  1011    A117a 4474   1.612   2.240   4.793
  1011    A117b 4475   1.666   2.293   4.950
  1011    A117c 4476   1.656   1.921   0.802
  1011    A117d 4477   1.564   1.904   0.853
  1011    A117e 4478   1.794   1.892   0.879
  1011    A117f 4479   1.844   1.797   0.876
  1011    A1180 4480   1.887   2.003   0.812
  1011    A1181 4481   1.890   1.983   5.129
  1011    A1182 4482   1.993   2.008   0.857
  1011    A1183 4483   1.626   2.105   1.065
  1011    A1184 4484   1.502   2.170   1.074
  1011    A1185 4485   1.495   2.273   1.046
  1011    A1186 4486   2.721   2.999   2.207
  1011    A1187 4487   2.693   2.959   2.110
  1011    A1188 4488   2.689   2.937   2.295
  1011    A1189 4489   2.670   3.100   2.215
  1011    A118a 4490   2.875   3.018   2.209
  1011    A118b 4491   2.948   2.890   2.165
  1011    A118c 4492   2.921   2.799   2.228
  1011    A118d 4493   3.054   2.897   2.189
  1011    A118e 4494   2.935   2.869   2.055
  1011    A118f 4495   2.916   3.061   2.355
  1011    A1190 4496   2.982   3.183   2.338
  1011    A1191 4497   3.066   3.230   2.444
  1011    A1192 4498   3.135   3.309   2.431
  1011    A1193 4499   3.061   3.158   2.569
  1011    A1194 4500   3.170   3.117   2.668
  1011    A1195 4501   3.169   3.168   2.760
  1011    A1196 4502   3.100   2.973   2.678
  1011    A1197 4503   3.049   2.948   2.765
  1011    A1198 4504   3.210   2.871   2.641
  1011    A1199 4505   3.179   2.769   2.607
  1011    A119a 4506   3.303   2.879   2.755
  1011    A119b 4507   3.257   2.865   2.849
  1011    A119c 4508   3.377   3.019   2.749
  1011    A119d 4509   3.357   3.069   2.845
  1011    A119e 4510   3.318   3.086   2.615
  1011    A119f 4511   3.369   3.161   2.565
  1011    A11a0 4512   3.282   2.954   2.532
  1011    A11a1 4513   3.212   2.973   2.447
  1011    A11a2 4514   3.373   2.902   2.493
  1011    A11a3 4515   3.000   3.033   2.575
  1011    A11a4 4516   2.922   2.981   2.471
  1011    A11a5 4517   2.895   2.879   2.475
  1011    A11a6 4518   2.974   3.233   2.201
  1011    A11a7 4519   2.922   3.132   2.119
  1011    A11a8 4520   2.917   3.134   1.976
  1011    A11a9 4521   2.882   3.048   1.909
  1011    A11aa 4522   2.965   3.254   1.927
  1011    A11ab 4523   3.075   3.288   1.826
  1011    A11ac 4524   3.129   3.200   1.820
  1011    A11ad 4525   3.134   3.391   1.914
  1011    A11ae 4526   3.233   3.369   1.957
  1011    A11af 4527   3.152   3.520   1.835
  1011    A11b0 4528   3.223   3.580   1.886
  1011    A11b1 4529   3.010   3.580   1.793
  1011    A11b2 4530   3.022   3.683   1.743
  1011    A11b3 4531   2.870   3.571   1.865
  1011    A11b4 4532   2.829   3.466   1.789
  1011    A11b5 4533   2.698   3.451   1.753
  1011    A11b6 4534   2.653   3.352   1.644
  1011    A11b7 4535   2.691   3.385   1.543
  1011    A11b8 4536   2.701   3.263   1.681
  1011    A11b9 4537   2.545   3.325   1.642
  1011    A11ba 4538   2.608   3.552   1.797
  1011    A11bb 4539   2.650   3.660   1.868
  1011    A11bc 4540   2.784   3.677   1.907
  1011    A11bd 4541   2.833   3.816   1.951
  1011    A11be 4542   2.936   3.819   1.980
  1011    A11bf 4543   2.774   3.865   2.031
  1011    A11c0 4544   2.823   3.889   1.864
  1011    A11c1 4545   2.954   3.458   1.705
  1011    A11c2 4546   2.937   3.489   1.599
  1011    A11c3 4547   3.070   3.343   1.687
  1011    A11c4 4548   3.049   3.288   1.593
  1011    A11c5 4549   3.195   3.446   1.696
  1011    A11c6 4550   3.207   3.517   1.618
  1011    A11c7 4551   3.285   3.379   1.708
  1011    A11c8 4552   3.020   3.354   2.010
  1011    A11c9 4553   3.029   3.352   2.149
  1011    A11ca 4554   3.105   3.412   2.203
  1011    A11cb 4555   2.159   3.393   4.453
  1011    A11cc 4556   2.084   3.427   4.528
  1011    A11cd 4557   2.115   3.396   4.353
  1011    A11ce 4558   2.177   3.292   4.485
  1011    A11cf 4559   2.287   3.484   4.473
  1011    A11d0 4560   2.262   3.614   4.403
  1011    A11d1 4561   2.228   3.585   4.309
  1011    A11d2 4562   2.181   3.665   4.457
  1011    A11d3 4563   2.352   3.675   4.386
  1011    A11d4 4564   2.412   3.416   4.412
  1011    A11d5 4565   2.509   3.399   4.524
  1011    A11d6 4566   2.643   3.375   4.494
  1011    A11d7 4567   2.719   3.402   4.567
  1011    A11d8 4568   2.673   3.359   4.357
  1011    A11d9 4569   2.788   3.405   4.266
  1011    A11da 4570   2.874   3.335   4.263
  1011    A11db 4571   2.685   3.386   4.148
  1011    A11dc 4572   2.703   3.299   4.080
  1011    A11dd 4573   2.684   3.513   4.060
  1011    A11de 4574   2.607   3.533   3.990
  1011    A11df 4575   2.834   3.513   4.001
  1011    A11e0 4576   2.842   3.410   3.941
  1011    A11e1 4577   2.933   3.546   4.127
  1011    A11e2 4578   3.020   3.480   4.138
  1011    A11e3 4579   2.839   3.556   4.254
  1011    A11e4 4580   2.881   3.612   4.340
  1011    A11e5 4581   2.710   3.616   4.176
  1011    A11e6 4582   2.618   3.631   4.238
  1011    A11e7 4583   2.730   3.724   4.155
  1011    A11e8 4584   2.579   3.356   4.256
  1011    A11e9 4585   2.446   3.384   4.279
  1011    A11ea 4586   2.384   3.405   4.196
  1011    A11eb 4587   2.448   3.430   4.655
  1011    A11ec 4588   2.326   3.502   4.624
  1011    A11ed 4589   2.265   3.582   4.718
  1011    A11ee 4590   2.181   3.652   4.698
  1011    A11ef 4591   2.325   3.575   4.846
  1011    A11f0 4592   2.336   3.645   4.981
  1011    A11f1 4593   2.385   3.743   4.965
  1011    A11f2 4594   2.440   3.537   5.016
  1011    A11f3 4595   2.540   3.585   5.029
  1011    A11f4 4596   2.400   3.475   5.157
  1011    A11f5 4597   2.479   3.429   0.787
  1011    A11f6 4598   2.256   3.403   5.143
  1011    A11f7 4599   2.226   3.376   0.808
  1011    A11f8 4600   2.187   3.320   5.038
  1011    A11f9 4601   2.127   3.431   4.981
  1011    A11fa 4602   2.016   3.427   4.899
  1011    A11fb 4603   1.934   3.550   4.856
  1011    A11fc 4604   2.004   3.635   4.851
  1011    A11fd 4605   1.870   3.581   4.934
  1011    A11fe 4606   1.877   3.530   4.760
  1011    A11ff 4607   1.973   3.297   4.861
  1011    A1200 4608   2.017   3.192   4.945
  1011    A1201 4609   2.126   3.197   5.038
  1011    A1202 4610   2.157   3.091   5.134
  1011    A1203 4611   2.266   3.081   5.147
  1011    A1204 4612   2.126   2.993   5.098
  1011    A1205 4613   2.115   3.106   0.806
  1011    A1206 4614   2.158   3.524   5.088
  1011    A1207 4615   2.062   3.551   5.143
  1011    A1208 4616   2.236   3.657   5.097
  1011    A1209 4617   2.187   3.751   5.115
  1011    A120a 4618   2.340   3.611   5.214
  1011    A120b 4619   2.416   3.692   0.791
  1011    A120c 4620   2.289   3.613   0.883
  1011    A120d 4621   2.425   3.487   4.876
  1011    A120e 4622   2.505   3.418   4.785
  1011    A120f 4623   2.607   3.388   4.807
  1011    A1210 4624   1.853   3.379   1.901
  1011    A1211 4625   1.950   3.374   1.857
  1011    A1212 4626   1.781   3.437   1.845
  1011    A1213 4627   1.805   3.283   1.905
  1011    A1214 4628   1.860   3.431   2.045
  1011    A1215 4629   1.872   3.583   2.062
  1011    A1216 4630   1.852   3.605   2.163
  1011    A1217 4631   1.968   3.624   2.031
  1011    A1218 4632   1.794   3.637   2.007
  1011    A1219 4633   1.984   3.371   2.123
  1011    A121a 4634   1.940   3.291   2.233
  1011    A121b 4635   2.028   3.221   2.320
  1011    A121c 4636   1.986   3.166   2.407
  1011    A121d 4637   2.160   3.226   2.276
  1011    A121e 4638   2.304   3.207   2.328
  1011    A121f 4639   2.336   3.106   2.319
  1011    A1220 4640   2.348   3.307   2.211
  1011    A1221 4641   2.393   3.269   2.122
  1011    A1222 4642   2.431   3.416   2.278
  1011    A1223 4643   2.447   3.515   2.225
  1011    A1224 4644   2.559   3.345   2.331
  1011    A1225 4645   2.624   3.306   2.247
  1011    A1226 4646   2.508   3.240   2.434
  1011    A1227 4647   2.524   3.138   2.397
  1011    A1228 4648   2.358   3.274   2.454
  1011    A1229 4649   2.306   3.249   2.551
  1011    A122a 4650   2.365   3.431   2.414
  1011    A122b 4651   2.425   3.496   2.484
  1011    A122c 4652   2.267   3.484   2.414
  1011    A122d 4653   2.205   3.323   2.185
  1011    A122e 4654   2.121   3.395   2.101
  1011    A122f 4655   2.160   3.446   2.010
  1011    A1230 4656   1.795   3.299   2.237
  1011    A1231 4657   1.740   3.369   2.128
  1011    A1232 4658   1.596   3.386   2.101
  1011    A1233 4659   1.567   3.440   2.013
  1011    A1234 4660   1.519   3.335   2.208
  1011    A1235 4661   1.379   3.345   2.266
  1011    A1236 4662   1.348   3.448   2.286
  1011    A1237 4663   1.435   3.276   2.391
  1011    A1238 4664   1.446   3.353   2.466
  1011    A1239 4665   1.329   3.168   2.443
  1011    A123a 4666   1.334   3.142   2.552
  1011    A123b 4667   1.344   3.054   2.341
  1011    A123c 4668   1.269   2.973   2.359
  1011    A123d 4669   1.469   3.011   2.273
  1011    A123e 4670   1.441   3.058   2.148
  1011    A123f 4671   1.519   3.038   2.037
  1011    A1240 4672   1.474   3.078   1.898
  1011    A1241 4673   1.525   3.004   1.832
  1011    A1242 4674   1.482   3.187   1.882
  1011    A1243 4675   1.367   3.052   1.873
  1011    A1244 4676   1.641   2.978   2.071
  1011    A1245 4677   1.666   2.926   2.194
  1011    A1246 4678   1.593   2.955   2.306
  1011    A1247 4679   1.630   2.904   2.440
  1011    A1248 4680   1.595   2.983   2.502
  1011    A1249 4681   1.742   2.910   2.446
  1011    A124a 4682   1.599   2.799   2.452
  1011    A124b 4683   1.302   3.116   2.198
  1011    A124c 4684   1.222   3.061   2.147
  1011    A124d 4685   1.252   3.266   2.226
  1011    A124e 4686   1.189   3.319   2.147
  1011    A124f 4687   1.202   3.242   2.376
  1011    A1250 4688   1.158   3.333   2.422
  1011    A1251 4689   1.106   3.190   2.375
  1011    A1252 4690   1.567   3.269   2.317
  1011    A1253 4691   1.706   3.255   2.339
  1011    A1254 4692   1.752   3.204   2.427
  1011    A1255 4693   4.546   3.279   4.821
  1011    A1256 4694   4.455   3.267   4.768
  1011    A1257 4695   4.617   3.327   4.750
  1011    A1258 4696   4.598   3.185   4.847
  1011    A1259 4697   4.533   3.357   4.951
  1011    A125a 4698   4.501   3.509   4.918
  1011    A125b 4699   4.473   3.530   4.817
  1011    A125c 4700   4.588   3.568   4.928
  1011    A125d 4701   4.426   3.551   4.990
  1011    A125e 4702   4.659   3.346   5.039
  1011    A125f 4703   4.620   3.286   5.157
  1011    A1260 4704   4.699   3.296   0.841
  1011    A1261 4705   4.658   3.261   0.937
  1011    A1262 4706   4.824   3.353   0.820
  1011    A1263 4707   4.933   3.432   0.903
  1011    A1264 4708   4.986   3.370   0.974
  1011    A1265 4709   4.995   3.470   5.188
  1011    A1266 4710   5.084   3.413   5.160
  1011    A1267 4711   5.023   3.620   5.190
  1011    A1268 4712   5.059   3.659   5.096
  1011    A1269 4713   5.127   3.639   0.883
  1011    A126a 4714   0.787   3.576   0.887
  1011    A126b 4715   5.045   3.617   1.011
  1011    A126c 4716   5.098   3.545   1.076
  1011    A126d 4717   4.902   3.575   0.959
  1011    A126e 4718   4.820   3.595   1.031
  1011    A126f 4719   4.885   3.663   0.826
  1011    A1270 4720   4.792   3.653   5.192
  1011    A1271 4721   4.895   3.774   0.852
  1011    A1272 4722   4.867   3.396   5.133
  1011    A1273 4723   4.787   3.408   5.017
  1011    A1274 4724   4.793   3.488   4.943
  1011    A1275 4725   4.477   3.260   5.153
  1011    A1276 4726   4.416   3.307   5.034
  1011    A1277 4727   4.276   3.324   5.016
  1011    A1278 4728   4.231   3.370   4.931
  1011    A1279 4729   4.198   3.294   5.130
  1011    A127a 4730   4.086   3.368   5.203
  1011    A127b 4731   4.104   3.478   5.205
  1011    A127c 4732   4.144   3.302   0.909
  1011    A127d 4733   4.188   3.379   0.970
  1011    A127e 4734   4.022   3.248   0.987
  1011    A127f 4735   4.026   3.231   1.100
  1011    A1280 4736   3.970   3.131   0.902
  1011    A1281 4737   3.903   3.067   0.957
  1011    A1282 4738   4.035   3.038   0.804
  1011    A1283 4739   3.967   3.096   5.126
  1011    A1284 4740   3.983   3.054   4.997
  1011    A1285 4741   3.935   3.132   4.877
  1011    A1286 4742   4.024   3.174   4.827
  1011    A1287 4743   3.870   3.066   4.817
  1011    A1288 4744   3.876   3.228   4.901
  1011    A1289 4745   4.065   2.941   4.986
  1011    A128a 4746   4.131   2.882   5.091
  1011    A128b 4747   4.127   2.931   0.795
  1011    A128c 4748   4.205   2.882   0.910
  1011    A128d 4749   4.295   2.830   0.867
  1011    A128e 4750   4.241   2.970   0.968
  1011    A128f 4751   4.141   2.802   0.953
  1011    A1290 4752   3.901   3.202   5.210
  1011    A1291 4753   3.793   3.190   5.210
  1011    A1292 4754   3.932   3.351   5.208
  1011    A1293 4755   3.868   3.425   5.159
  1011    A1294 4756   3.921   3.366   0.936
  1011    A1295 4757   3.817   3.356   0.976
  1011    A1296 4758   3.965   3.464   0.966
  1011    A1297 4759   4.252   3.243   0.817
  1011    A1298 4760   4.394   3.228   0.841
  1011    A1299 4761   4.437   3.214   0.941
  1011    A129a 4762   2.064   0.938   1.519
  1011    A129b 4763   1.987   0.862   1.495
  1011    A129c 4764   2.042   1.020   1.442
  1011    A129d 4765   2.044   0.977   1.624
  1011    A129e 4766   2.204   0.877   1.522
  1011    A129f 4767   2.305   0.997   1.525
  1011    A12a0 4768   2.308   1.042   1.625
  1011    A12a1 4769   2.279   1.070   1.451
  1011    A12a2 4770   2.403   0.967   1.501
  1011    A12a3 4771   2.236   0.799   1.393
  1011    A12a4 4772   2.265   5.096   1.427
  1011    A12a5 4773   2.300   4.998   1.325
  1011    A12a6 4774   2.326   4.897   1.347
  1011    A12a7 4775   2.297   5.045   1.192
  1011    A12a8 4776   2.328   4.993   1.048
  1011    A12a9 4777   2.240   4.928   1.016
  1011    A12aa 4778   2.300   5.157   1.014
  1011    A12ab 4779   2.208   5.172   0.949
  1011    A12ac 4780   2.442   5.201   0.959
  1011    A12ad 4781   2.480   0.876   0.972
  1011    A12ae 4782   2.433   5.145   0.822
  1011    A12af 4783   2.350   5.188   5.202
  1011    A12b0 4784   2.424   4.982   0.833
  1011    A12b1 4785   2.323   4.954   0.815
  1011    A12b2 4786   2.462   4.952   0.989
  1011    A12b3 4787   2.504   4.860   1.026
  1011    A12b4 4788   2.533   5.085   1.022
  1011    A12b5 4789   2.625   5.075   0.982
  1011    A12b6 4790   2.552   5.091   1.135
  1011    A12b7 4791   2.271   5.172   1.162
  1011    A12b8 4792   2.243   0.842   1.255
  1011    A12b9 4793   2.222   0.937   1.217
  1011    A12ba 4794   2.267   5.085   1.571
  1011    A12bb 4795   2.219   5.202   1.635
  1011    A12bc 4796   2.182   5.198   1.775
  1011    A12bd 4797   2.126   0.844   1.835
  1011    A12be 4798   2.215   5.072   1.837
  1011    A12bf 4799   2.224   5.012   1.978
  1011    A12c0 4800   2.264   5.081   2.046
  1011    A12c1 4801   2.318   4.908   1.912
  1011    A12c2 4802   2.415   4.942   1.945
  1011    A12c3 4803   2.275   4.766   1.966
  1011    A12c4 4804   2.349   4.687   1.956
  1011    A12c5 4805   2.142   4.744   1.899
  1011    A12c6 4806   2.104   4.643   1.918
  1011    A12c7 4807   2.087   4.794   1.767
  1011    A12c8 4808   1.991   4.876   1.822
  1011    A12c9 4809   1.874   4.912   1.760
  1011    A12ca 4810   1.756   4.946   1.835
  1011    A12cb 4811   1.757   5.058   1.858
  1011    A12cc 4812   1.750   4.891   1.925
  1011    A12cd 4813   1.669   4.928   1.768
  1011    A12ce 4814   1.884   4.898   1.626
  1011    A12cf 4815   1.991   4.837   1.554
  1011    A12d0 4816   2.086   4.761   1.631
  1011    A12d1 4817   2.186   4.660   1.563
  1011    A12d2 4818   2.203   4.673   1.454
  1011    A12d3 4819   2.138   4.557   1.568
  1011    A12d4 4820   2.275   4.654   1.617
  1011    A12d5 4821   2.034   4.849   1.963
  1011    A12d6 4822   1.956   4.794   2.014
  1011    A12d7 4823   2.123   4.927   2.064
  1011    A12d8 4824   2.072   4.986   2.142
  1011    A12d9 4825   2.231   4.816   2.109
  1011    A12da 4826   2.318   4.862   2.163
  1011    A12db 4827   2.191   4.739   2.173
  1011    A12dc 4828   2.289   4.977   1.779
  1011    A12dd 4829   2.317   4.975   1.646
  1011    A12de 4830   2.367   4.897   1.601
  1011    A12df 4831   1.739   4.395   5.069
  1011    A12e0 4832   1.766   4.379   4.962
  1011    A12e1 4833   1.781   4.492   5.091
  1011    A12e2 4834   1.790   4.318   5.125
  1011    A12e3 4835   1.586   4.393   5.094
  1011    A12e4 4836   1.507   4.507   5.023
  1011    A12e5 4837   1.513   4.482   4.914
  1011    A12e6 4838   1.528   4.607   5.041
  1011    A12e7 4839   1.399   4.498   5.057
  1011    A12e8 4840   1.578   4.392   0.823
  1011    A12e9 4841   1.503   4.280   0.859
  1011    A12ea 4842   1.441   4.266   0.987
  1011    A12eb 4843   1.380   4.182   1.011
  1011    A12ec 4844   1.480   4.367   1.079
  1011    A12ed 4845   1.426   4.426   1.211
  1011    A12ee 4846   1.447   4.355   1.293
  1011    A12ef 4847   1.524   4.544   1.185
  1011    A12f0 4848   1.608   4.531   1.248
  1011    A12f1 4849   1.445   4.676   1.217
  1011    A12f2 4850   1.482   4.772   1.186
  1011    A12f3 4851   1.401   4.653   1.363
  1011    A12f4 4852   1.487   4.625   1.420
  1011    A12f5 4853   1.280   4.543   1.357
  1011    A12f6 4854   1.290   4.472   1.437
  1011    A12f7 4855   1.278   4.488   1.219
  1011    A12f8 4856   1.187   4.437   1.188
  1011    A12f9 4857   1.316   4.628   1.147
  1011    A12fa 4858   1.234   4.699   1.149
  1011    A12fb 4859   1.330   4.608   1.038
  1011    A12fc 4860   1.560   4.471   1.050
  1011    A12fd 4861   1.599   4.494   0.917
  1011    A12fe 4862   1.648   4.588   0.888
  1011    A12ff 4863   1.476   4.201   5.172
  1011    A1300 4864   1.504   4.262   5.049
  1011    A1301 4865   1.482   4.197   4.925
  1011    A1302 4866   1.508   4.240   4.831
  1011    A1303 4867   1.443   4.066   4.935
  1011    A1304 4868   1.392   3.945   4.850
  1011    A1305 4869   1.285   3.960   4.820
  1011    A1306 4870   1.393   3.870   4.989
  1011    A1307 4871   1.302   3.823   5.025
  1011    A1308 4872   1.491   3.754   4.984
  1011    A1309 4873   1.482   3.685   5.067
  1011    A130a 4874   1.636   3.800   4.938
  1011    A130b 4875   1.704   3.717   4.944
  1011    A130c 4876   1.713   3.938   4.962
  1011    A130d 4877   1.692   3.974   4.826
  1011    A130e 4878   1.791   4.047   4.755
  1011    A130f 4879   1.797   4.067   4.608
  1011    A1310 4880   1.857   3.989   4.571
  1011    A1311 4881   1.702   4.039   4.562
  1011    A1312 4882   1.829   4.164   4.575
  1011    A1313 4883   1.887   4.104   4.834
  1011    A1314 4884   1.908   4.068   4.960
  1011    A1315 4885   1.825   3.988   5.034
  1011    A1316 4886   1.856   3.934   5.170
  1011    A1317 4887   1.802   3.989   0.819
  1011    A1318 4888   1.966   3.932   5.200
  1011    A1319 4889   1.822   3.836   5.167
  1011    A131a 4890   1.611   3.855   4.790
  1011    A131b 4891   1.667   3.793   4.727
  1011    A131c 4892   1.467   3.843   4.755
  1011    A131d 4893   1.441   3.837   4.646
  1011    A131e 4894   1.442   3.706   4.838
  1011    A131f 4895   1.498   3.615   4.795
  1011    A1320 4896   1.338   3.677   4.835
  1011    A1321 4897   1.426   4.002   5.053
  1011    A1322 4898   1.437   4.066   5.178
  1011    A1323 4899   1.423   4.009   0.837
  1011    A1324 4900   2.793   4.645   4.096
  1011    A1325 4901   2.707   4.581   4.104
  1011    A1326 4902   2.861   4.581   4.160
  1011    A1327 4903   2.757   4.737   4.142
  1011    A1328 4904   2.830   4.656   3.943
  1011    A1329 4905   2.961   4.741   3.939
  1011    A132a 4906   3.041   4.704   4.006
  1011    A132b 4907   3.006   4.743   3.844
  1011    A132c 4908   2.935   4.850   3.971
  1011    A132d 4909   2.711   4.707   3.872
  1011    A132e 4910   2.672   4.605   3.777
  1011    A132f 4911   2.563   4.629   3.686
  1011    A1330 4912   2.528   4.556   3.611
  1011    A1331 4913   2.486   4.745   3.716
  1011    A1332 4914   2.372   4.831   3.664
  1011    A1333 4915   2.277   4.792   3.702
  1011    A1334 4916   2.426   4.939   3.768
  1011    A1335 4917   2.352   4.957   3.855
  1011    A1336 4918   2.442   5.064   3.678
  1011    A1337 4919   2.506   5.141   3.719
  1011    A1338 4920   2.295   5.110   3.662
  1011    A1339 4921   2.236   5.113   3.754
  1011    A133a 4922   2.239   4.998   3.566
  1011    A133b 4923   2.147   4.941   3.591
  1011    A133c 4924   2.351   4.901   3.522
  1011    A133d 4925   2.340   4.827   3.434
  1011    A133e 4926   2.473   5.004   3.535
  1011    A133f 4927   2.570   4.950   3.536
  1011    A1340 4928   2.475   5.085   3.455
  1011    A1341 4929   2.530   4.843   3.804
  1011    A1342 4930   2.643   4.832   3.891
  1011    A1343 4931   2.677   4.918   3.954
  1011    A1344 4932   2.757   4.491   3.793
  1011    A1345 4933   2.849   4.517   3.896
  1011    A1346 4934   2.956   4.431   3.919
  1011    A1347 4935   3.041   4.471   3.967
  1011    A1348 4936   2.957   4.312   3.849
  1011    A1349 4937   3.067   4.233   3.785
  1011    A134a 4938   3.141   4.307   3.748
  1011    A134b 4939   2.959   4.198   3.673
  1011    A134c 4940   2.987   4.239   3.575
  1011    A134d 4941   2.976   4.039   3.655
  1011    A134e 4942   2.947   3.992   3.564
  1011    A134f 4943   2.917   3.981   3.780
  1011    A1350 4944   2.811   4.015   3.791
  1011    A1351 4945   2.936   3.837   3.837
  1011    A1352 4946   3.000   3.883   3.947
  1011    A1353 4947   3.021   3.807   4.063
  1011    A1354 4948   3.071   3.863   4.192
  1011    A1355 4949   3.110   3.964   4.181
  1011    A1356 4950   3.158   3.805   4.229
  1011    A1357 4951   2.999   3.841   4.266
  1011    A1358 4952   2.974   3.672   4.046
  1011    A1359 4953   2.904   3.631   3.931
  1011    A135a 4954   2.874   3.710   3.823
  1011    A135b 4955   2.786   3.665   3.707
  1011    A135c 4956   2.694   3.714   3.703
  1011    A135d 4957   2.833   3.695   3.612
  1011    A135e 4958   2.772   3.555   3.707
  1011    A135f 4959   3.011   4.029   3.901
  1011    A1360 4960   2.962   4.094   3.973
  1011    A1361 4961   3.132   4.098   3.836
  1011    A1362 4962   3.222   4.093   3.898
  1011    A1363 4963   3.131   4.029   3.694
  1011    A1364 4964   3.198   4.077   3.627
  1011    A1365 4965   3.146   3.928   3.698
  1011    A1366 4966   2.868   4.282   3.754
  1011    A1367 4967   2.768   4.376   3.716
  1011    A1368 4968   2.709   4.369   3.630
  1011    A1369 4969   5.138   2.579   3.034
  1011    A136a 4970   5.084   2.520   2.964
  1011    A136b 4971   5.132   2.524   3.126
  1011    A136c 4972   0.812   2.582   3.003
  1011    A136d 4973   5.085   2.724   3.054
  1011    A136e 4974   4.946   2.729   3.108
  1011    A136f 4975   4.913   2.830   3.098
  1011    A1370 4976   4.865   2.676   3.064
  1011    A1371 4977   4.947   2.710   3.217
  1011    A1372 4978   5.086   2.803   2.917
  1011    A1373 4979   5.179   2.913   2.936
  1011    A1374 4980   0.793   2.989   2.825
  1011    A1375 4981   0.868   3.072   2.839
  1011    A1376 4982   5.164   2.955   2.702
  1011    A1377 4983   5.200   2.958   2.557
  1011    A1378 4984   0.876   2.929   2.549
  1011    A1379 4985   5.094   2.842   2.538
  1011    A137a 4986   5.133   2.744   2.527
  1011    A137b 4987   4.995   2.880   2.436
  1011    A137c 4988   4.902   2.826   2.446
  1011    A137d 4989   5.095   2.866   2.311
  1011    A137e 4990   5.136   2.765   2.298
  1011    A137f 4991   5.195   2.989   2.320
  1011    A1380 4992   0.866   2.949   2.333
  1011    A1381 4993   5.154   3.064   2.448
  1011    A1382 4994   5.185   3.171   2.448
  1011    A1383 4995   4.987   3.035   2.449
  1011    A1384 4996   4.939   3.056   2.548
  1011    A1385 4997   4.940   3.084   2.370
  1011    A1386 4998   5.078   2.858   2.685
  1011    A1387 4999   5.040   2.770   2.786
  1011    A1388 5000   5.002   2.668   2.763
  1011    A1389 5001   0.801   2.925   3.070
  1011    A138a 5002   5.184   2.808   3.142
  1011    A138b 5003   0.815   2.769   3.264
  1011    A138c 5004   0.798   2.672   3.307
  1011    A138d 5005   0.910   2.861   3.307
  1011    A138e 5006   1.018   2.868   3.411
  1011    A138f 5007   0.975   2.874   3.509
  1011    A1390 5008   1.050   3.011   3.345
  1011    A1391 5009   1.021   3.098   3.404
  1011    A1392 5010   1.203   3.012   3.321
  1011    A1393 5011   1.233   3.111   3.311
  1011    A1394 5012   1.236   2.919   3.208
  1011    A1395 5013   1.341   2.933   3.176
  1011    A1396 5014   1.152   2.897   3.090
  1011    A1397 5015   1.137   2.768   3.121
  1011    A1398 5016   1.103   2.669   3.022
  1011    A1399 5017   1.099   2.520   3.053
  1011    A139a 5018   0.998   2.497   3.098
  1011    A139b 5019   1.185   2.500   3.121
  1011    A139c 5020   1.110   2.470   2.961
  1011    A139d 5021   1.094   2.725   2.896
  1011    A139e 5022   1.122   2.858   2.865
  1011    A139f 5023   1.155   2.955   2.961
  1011    A13a0 5024   1.187   3.092   2.927
  1011    A13a1 5025   1.117   3.132   2.841
  1011    A13a2 5026   1.172   3.166   3.003
  1011    A13a3 5027   1.289   3.101   2.890
  1011    A13a4 5028   1.203   2.775   3.256
  1011    A13a5 5029   1.284   2.696   3.249
  1011    A13a6 5030   1.151   2.790   3.403
  1011    A13a7 5031   1.149   2.695   3.458
  1011    A13a8 5032   1.248   2.914   3.439
  1011    A13a9 5033   1.357   2.892   3.435
  1011    A13aa 5034   1.229   2.945   3.543
  1011    A13ab 5035   0.935   2.984   3.256
  1011    A13ac 5036   0.883   3.027   3.129
  1011    A13ad 5037   0.927   3.119   3.082
  1011    A13ae 5038   4.451   4.176   3.202
  1011    A13af 5039   4.466   4.223   3.300
  1011    A13b0 5040   4.342   4.179   3.188
  1011    A13b1 5041   4.485   4.251   3.133
  1011    A13b2 5042   4.508   4.036   3.189
  1011    A13b3 5043   4.507   3.985   3.045
  1011    A13b4 5044   4.531   3.875   3.037
  1011    A13b5 5045   4.566   4.049   2.983
  1011    A13b6 5046   4.404   4.006   3.012
  1011    A13b7 5047   4.439   3.933   3.280
  1011    A13b8 5048   4.524   3.903   3.387
  1011    A13b9 5049   4.463   3.851   3.509
  1011    A13ba 5050   4.515   3.851   3.602
  1011    A13bb 5051   4.335   3.803   3.489
  1011    A13bc 5052   4.209   3.785   3.577
  1011    A13bd 5053   4.204   3.854   3.658
  1011    A13be 5054   4.128   3.821   3.441
  1011    A13bf 5055   4.093   3.921   3.441
  1011    A13c0 5056   4.019   3.712   3.427
  1011    A13c1 5057   3.966   3.696   3.333
  1011    A13c2 5058   3.918   3.764   3.542
  1011    A13c3 5059   3.891   3.870   3.540
  1011    A13c4 5060   4.008   3.726   3.675
  1011    A13c5 5061   4.020   3.811   3.736
  1011    A13c6 5062   4.147   3.661   3.632
  1011    A13c7 5063   4.211   3.605   3.709
  1011    A13c8 5064   4.098   3.593   3.498
  1011    A13c9 5065   4.023   3.514   3.525
  1011    A13ca 5066   4.179   3.550   3.437
  1011    A13cb 5067   4.260   3.835   3.378
  1011    A13cc 5068   4.302   3.912   3.277
  1011    A13cd 5069   4.235   3.947   3.201
  1011    A13ce 5070   4.649   3.963   3.367
  1011    A13cf 5071   4.648   4.037   3.251
  1011    A13d0 5072   4.750   4.124   3.209
  1011    A13d1 5073   4.748   4.187   3.123
  1011    A13d2 5074   4.862   4.124   3.299
  1011    A13d3 5075   4.945   4.237   3.355
  1011    A13d4 5076   4.886   4.326   3.366
  1011    A13d5 5077   4.957   4.150   3.492
  1011    A13d6 5078   4.905   4.187   3.579
  1011    A13d7 5079   5.111   4.134   3.514
  1011    A13d8 5080   5.147   4.050   3.575
  1011    A13d9 5081   5.146   4.275   3.553
  1011    A13da 5082   0.811   4.277   3.588
  1011    A13db 5083   5.066   4.372   3.639
  1011    A13dc 5084   5.041   4.454   3.532
  1011    A13dd 5085   4.928   4.538   3.532
  1011    A13de 5086   4.855   4.574   3.398
  1011    A13df 5087   4.916   4.558   3.310
  1011    A13e0 5088   4.759   4.530   3.393
  1011    A13e1 5089   4.846   4.681   3.403
  1011    A13e2 5090   4.874   4.556   3.656
  1011    A13e3 5091   4.909   4.486   3.769
  1011    A13e4 5092   4.999   4.377   3.762
  1011    A13e5 5093   5.014   4.276   3.872
  1011    A13e6 5094   4.938   4.298   3.943
  1011    A13e7 5095   5.009   4.175   3.826
  1011    A13e8 5096   5.111   4.289   3.915
  1011    A13e9 5097   5.126   4.368   3.433
  1011    A13ea 5098   0.794   4.410   3.399
  1011    A13eb 5099   5.086   4.279   3.313
  1011    A13ec 5100   5.099   4.323   3.218
  1011    A13ed 5101   5.154   4.144   3.365
  1011    A13ee 5102   5.121   4.064   3.303
  1011    A13ef 5103   0.836   4.130   3.349
  1011    A13f0 5104   4.865   4.051   3.417
  1011    A13f1 5105   4.763   3.966   3.453
  1011    A13f2 5106   4.747   3.931   3.554
  1011    A13f3 5107   2.408   3.783   4.070
  1011    A13f4 5108   2.334   3.727   4.013
  1011    A13f5 5109   2.501   3.733   4.032
  1011    A13f6 5110   2.398   3.778   4.176
  1011    A13f7 5111   2.400   3.931   4.029
  1011    A13f8 5112   2.505   4.008   4.120
  1011    A13f9 5113   2.471   4.047   4.217
  1011    A13fa 5114   2.555   4.089   4.066
  1011    A13fb 5115   2.590   3.949   4.140
  1011    A13fc 5116   2.258   3.996   4.058
  1011    A13fd 5117   2.229   4.064   3.937
  1011    A13fe 5118   2.117   4.155   3.929
  1011    A13ff 5119   2.090   4.212   3.841
  1011    A1400 5120   2.050   4.170   4.050
  1011    A1401 5121   1.961   4.266   4.125
  1011    A1402 5122   1.854   4.247   4.099
  1011    A1403 5123   1.997   4.187   4.255
  1011    A1404 5124   1.908   4.138   4.305
  1011    A1405 5125   2.043   4.310   4.351
  1011    A1406 5126   2.095   4.287   4.447
  1011    A1407 5127   1.910   4.395   4.360
  1011    A1408 5128   1.824   4.331   4.381
  1011    A1409 5129   1.891   4.468   4.224
  1011    A140a 5130   1.789   4.444   4.181
  1011    A140b 5131   2.005   4.418   4.134
  1011    A140c 5132   2.033   4.465   4.036
  1011    A140d 5133   2.122   4.402   4.248
  1011    A140e 5134   2.217   4.356   4.215
  1011    A140f 5135   2.148   4.498   4.296
  1011    A1410 5136   2.085   4.099   4.168
  1011    A1411 5137   2.191   4.012   4.180
  1011    A1412 5138   2.213   3.947   4.264
  1011    A1413 5139   2.322   4.039   3.830
  1011    A1414 5140   2.423   3.954   3.877
  1011    A1415 5141   2.524   3.904   3.800
  1011    A1416 5142   2.606   3.855   3.845
  1011    A1417 5143   2.520   3.937   3.662
  1011    A1418 5144   2.600   3.944   3.537
  1011    A1419 5145   2.685   4.011   3.563
  1011    A141a 5146   2.491   4.035   3.476
  1011    A141b 5147   2.528   4.139   3.451
  1011    A141c 5148   2.450   3.960   3.334
  1011    A141d 5149   2.426   4.026   3.249
  1011    A141e 5150   2.392   3.818   3.364
  1011    A141f 5151   2.367   3.779   3.261
  1011    A1420 5152   2.299   3.793   3.477
  1011    A1421 5153   2.397   3.714   3.541
  1011    A1422 5154   2.365   3.603   3.620
  1011    A1423 5155   2.467   3.492   3.640
  1011    A1424 5156   2.535   3.524   3.715
  1011    A1425 5157   2.527   3.471   3.553
  1011    A1426 5158   2.420   3.399   3.683
  1011    A1427 5159   2.226   3.587   3.638
  1011    A1428 5160   2.133   3.659   3.567
  1011    A1429 5161   2.169   3.752   3.474
  1011    A142a 5162   2.075   3.782   3.354
  1011    A142b 5163   2.102   3.881   3.314
  1011    A142c 5164   1.978   3.806   3.394
  1011    A142d 5165   2.051   3.700   3.284
  1011    A142e 5166   2.502   3.736   3.431
  1011    A142f 5167   2.521   3.640   3.379
  1011    A1430 5168   2.628   3.832   3.437
  1011    A1431 5169   2.723   3.785   3.454
  1011    A1432 5170   2.597   3.908   3.296
  1011    A1433 5171   2.614   3.838   3.210
  1011    A1434 5172   2.663   3.991   3.277
  1011    A1435 5173   2.420   4.020   3.615
  1011    A1436 5174   2.319   4.074   3.692
  1011    A1437 5175   2.252   4.147   3.655
  1011    A1438 5176   0.808   1.727   3.133
  1011    A1439 5177   0.874   1.683   3.209
  1011    A143a 5178   0.790   1.641   3.073
  1011    A143b 5179   5.153   1.758   3.196
  1011    A143c 5180   0.851   1.849   3.046
  1011    A143d 5181   0.980   1.807   2.959
  1011    A143e 5182   1.087   1.802   3.002
  1011    A143f 5183   0.989   1.886   2.883
  1011    A1440 5184   0.954   1.721   2.896
  1011    A1441 5185   0.881   1.971   3.138
  1011    A1442 5186   0.790   2.073   3.111
  1011    A1443 5187   5.201   2.181   3.188
  1011    A1444 5188   5.120   2.247   3.177
  1011    A1445 5189   0.854   2.183   3.302
  1011    A1446 5190   0.878   2.252   3.440
  1011    A1447 5191   0.797   2.233   3.511
  1011    A1448 5192   1.006   2.158   3.454
  1011    A1449 5193   0.996   2.094   3.536
  1011    A144a 5194   1.127   2.268   3.462
  1011    A144b 5195   1.234   2.237   3.437
  1011    A144c 5196   1.107   2.314   3.604
  1011    A144d 5197   1.103   2.229   3.675
  1011    A144e 5198   0.963   2.395   3.598
  1011    A144f 5199   0.885   2.361   3.664
  1011    A1450 5200   0.925   2.405   3.454
  1011    A1451 5201   0.856   2.481   3.421
  1011    A1452 5202   1.066   2.385   3.381
  1011    A1453 5203   1.056   2.364   3.273
  1011    A1454 5204   1.140   2.469   3.384
  1011    A1455 5205   0.959   2.104   3.318
  1011    A1456 5206   0.981   1.988   3.234
  1011    A1457 5207   1.043   1.906   3.255
  1011    A1458 5208   5.138   2.032   3.000
  1011    A1459 5209   5.165   1.896   2.966
  1011    A145a 5210   5.082   1.822   2.882
  1011    A145b 5211   5.090   1.706   2.877
  1011    A145c 5212   4.992   1.901   2.812
  1011    A145d 5213   4.857   1.880   2.735
  1011    A145e 5214   4.782   1.830   2.789
  1011    A145f 5215   4.840   2.036   2.745
  1011    A1460 5216   4.755   2.075   2.806
  1011    A1461 5217   4.843   2.088   2.596
  1011    A1462 5218   4.876   2.191   2.569
  1011    A1463 5219   4.708   2.039   2.533
  1011    A1464 5220   4.704   2.071   2.433
  1011    A1465 5221   4.573   2.042   2.606
  1011    A1466 5222   4.565   1.903   2.612
  1011    A1467 5223   4.459   1.826   2.671
  1011    A1468 5224   4.483   1.682   2.680
  1011    A1469 5225   4.550   1.660   2.602
  1011    A146a 5226   4.526   1.653   2.777
  1011    A146b 5227   4.396   1.616   2.668
  1011    A146c 5228   4.370   1.914   2.734
  1011    A146d 5229   4.385   2.053   2.740
  1011    A146e 5230   4.486   2.130   2.675
  1011    A146f 5231   4.492   2.284   2.673
  1011    A1470 5232   4.389   2.325   2.663
  1011    A1471 5233   4.560   2.330   2.596
  1011    A1472 5234   4.534   2.305   2.772
  1011    A1473 5235   4.701   1.886   2.537
  1011    A1474 5236   4.690   1.842   2.435
  1011    A1475 5237   4.846   1.844   2.587
  1011    A1476 5238   4.881   1.747   2.547
  1011    A1477 5239   4.925   1.972   2.529
  1011    A1478 5240   4.934   1.982   2.421
  1011    A1479 5241   5.037   1.960   2.556
  1011    A147a 5242   4.970   2.033   2.833
  1011    A147b 5243   5.043   2.104   2.927
  1011    A147c 5244   5.032   2.213   2.949
  1011    A147d 5245   3.596   4.875   0.891
  1011    A147e 5246   3.506   4.822   0.919
  1011    A147f 5247   3.681   4.817   0.914
  1011    A1480 5248   3.585   4.894   5.215
  1011    A1481 5249   3.576   5.009   0.968
  1011    A1482 5250   3.563   4.985   1.119
  1011    A1483 5251   3.559   5.078   1.181
  1011    A1484 5252   3.464   4.937   1.123
  1011    A1485 5253   3.639   4.914   1.162
  1011    A1486 5254   3.454   5.089   0.913
  1011    A1487 5255   3.495   5.205   0.841
  1011    A1488 5256   3.411   0.857   5.194
  1011    A1489 5257   3.452   0.951   5.152
  1011    A148a 5258   3.281   0.811   5.176
  1011    A148b 5259   3.148   0.844   5.114
  1011    A148c 5260   3.143   0.839   5.009
  1011    A148d 5261   3.097   5.146   5.201
  1011    A148e 5262   3.067   5.059   5.144
  1011    A148f 5263   2.978   5.198   0.864
  1011    A1490 5264   2.961   5.142   0.958
  1011    A1491 5265   2.870   5.210   5.184
  1011    A1492 5266   2.767   5.201   0.800
  1011    A1493 5267   2.907   0.920   5.110
  1011    A1494 5268   2.831   1.005   5.125
  1011    A1495 5269   3.044   0.957   5.163
  1011    A1496 5270   3.072   1.057   5.145
  1011    A1497 5271   3.014   0.920   0.886
  1011    A1498 5272   3.110   0.941   0.946
  1011    A1499 5273   2.931   0.975   0.933
  1011    A149a 5274   3.235   5.131   0.813
  1011    A149b 5275   3.316   5.047   0.896
  1011    A149c 5276   3.279   4.962   0.952
  1011    A149d 5277   3.643   0.790   0.865
  1011    A149e 5278   3.695   5.103   0.939
  1011    A149f 5279   3.833   5.081   0.943
  1011    A14a0 5280   3.886   4.987   0.970
  1011    A14a1 5281   3.905   5.194   0.895
  1011    A14a2 5282   4.049   0.792   0.848
  1011    A14a3 5283   4.125   0.811   0.923
  1011    A14a4 5284   3.992   0.928   5.215
  1011    A14a5 5285   4.044   1.013   0.836
  1011    A14a6 5286   4.038   0.921   5.070
  1011    A14a7 5287   4.033   1.016   5.018
  1011    A14a8 5288   3.947   0.808   5.008
  1011    A14a9 5289   3.837   0.821   5.016
  1011    A14aa 5290   3.973   5.168   4.879
  1011    A14ab 5291   4.028   5.047   4.935
  1011    A14ac 5292   3.977   4.924   4.893
  1011    A14ad 5293   4.007   4.799   4.974
  1011    A14ae 5294   4.094   4.801   5.040
  1011    A14af 5295   3.919   4.765   5.037
  1011    A14b0 5296   4.033   4.713   4.907
  1011    A14b1 5297   3.902   4.925   4.777
  1011    A14b2 5298   3.862   5.036   4.717
  1011    A14b3 5299   3.884   5.162   4.773
  1011    A14b4 5300   3.805   0.851   4.726
  1011    A14b5 5301   3.735   0.870   4.810
  1011    A14b6 5302   3.858   0.936   4.690
  1011    A14b7 5303   3.749   0.815   4.647
  1011    A14b8 5304   4.008   5.105   5.070
  1011    A14b9 5305   3.930   5.053   5.130
  1011    A14ba 5306   4.126   5.148   5.166
  1011    A14bb 5307   4.193   5.073   5.196
  1011    A14bc 5308   4.179   0.850   5.089
  1011    A14bd 5309   4.245   0.911   5.162
  1011    A14be 5310   4.232   0.833   4.996
  1011    A14bf 5311   3.856   0.878   0.838
  1011    A14c0 5312   3.725   0.886   0.806
  1011    A14c1 5313   3.689   0.974   5.185
  1011    A14c2 5314   4.420   4.425   4.603
  1011    A14c3 5315   4.326   4.488   4.621
  1011    A14c4 5316   4.407   4.337   4.659
  1011    A14c5 5317   4.507   4.477   4.634
  1011    A14c6 5318   4.434   4.391   4.447
  1011    A14c7 5319   4.324   4.287   4.415
  1011    A14c8 5320   4.343   4.204   4.481
  1011    A14c9 5321   4.224   4.330   4.423
  1011    A14ca 5322   4.335   4.250   4.315
  1011    A14cb 5323   4.575   4.336   4.412
  1011    A14cc 5324   4.632   4.425   4.317
  1011    A14cd 5325   4.767   4.400   4.265
  1011    A14ce 5326   4.808   4.480   4.201
  1011    A14cf 5327   4.833   4.291   4.321
  1011    A14d0 5328   4.970   4.232   4.307
  1011    A14d1 5329   5.049   4.303   4.313
  1011    A14d2 5330   4.921   4.160   4.445
  1011    A14d3 5331   4.961   4.196   4.538
  1011    A14d4 5332   4.958   4.003   4.426
  1011    A14d5 5333   4.910   3.924   4.482
  1011    A14d6 5334   5.113   4.013   4.420
  1011    A14d7 5335   5.148   4.060   4.508
  1011    A14d8 5336   5.140   4.081   4.278
  1011    A14d9 5337   5.213   4.166   4.268
  1011    A14da 5338   5.006   4.116   4.213
  1011    A14db 5339   5.008   4.129   4.107
  1011    A14dc 5340   4.923   3.997   4.267
  1011    A14dd 5341   4.956   3.906   4.215
  1011    A14de 5342   4.816   4.013   4.245
  1011    A14df 5343   4.781   4.218   4.420
  1011    A14e0 5344   4.650   4.232   4.465
  1011    A14e1 5345   4.618   4.172   4.546
  1011    A14e2 5346   4.541   4.536   4.291
  1011    A14e3 5347   4.419   4.521   4.365
  1011    A14e4 5348   4.309   4.612   4.354
  1011    A14e5 5349   4.221   4.615   4.414
  1011    A14e6 5350   4.330   4.715   4.260
  1011    A14e7 5351   4.246   4.807   4.167
  1011    A14e8 5352   4.175   4.747   4.110
  1011    A14e9 5353   4.385   4.826   4.086
  1011    A14ea 5354   4.378   4.780   3.986
  1011    A14eb 5355   4.407   4.980   4.069
  1011    A14ec 5356   4.472   5.025   3.993
  1011    A14ed 5357   4.437   5.040   4.214
  1011    A14ee 5358   4.471   5.139   4.198
  1011    A14ef 5359   4.492   4.970   4.340
  1011    A14f0 5360   4.370   4.964   4.407
  1011    A14f1 5361   4.347   4.900   4.529
  1011    A14f2 5362   4.212   4.902   4.597
  1011    A14f3 5363   4.184   4.998   4.634
  1011    A14f4 5364   4.209   4.839   4.687
  1011    A14f5 5365   4.135   4.861   4.526
  1011    A14f6 5366   4.471   4.868   4.587
  1011    A14f7 5367   4.598   4.883   4.528
  1011    A14f8 5368   4.612   4.929   4.400
  1011    A14f9 5369   4.737   4.920   4.322
  1011    A14fa 5370   4.739   4.841   4.245
  1011    A14fb 5371   4.751   5.017   4.266
  1011    A14fc 5372   4.820   4.897   4.387
  1011    A14fd 5373   4.294   5.021   4.288
  1011    A14fe 5374   4.262   5.120   4.311
  1011    A14ff 5375   4.194   4.955   4.194
  1011    A1500 5376   4.084   4.983   4.208
  1011    A1501 5377   4.249   5.026   4.063
  1011    A1502 5378   4.244   5.137   4.070
  1011    A1503 5379   4.196   5.003   3.972
  1011    A1504 5380   4.443   4.731   4.182
  1011    A1505 5381   4.548   4.640   4.190
  1011    A1506 5382   4.635   4.651   4.115
  1011    A1507 5383   5.066   2.329   4.649
  1011    A1508 5384   5.014   2.422   4.623
  1011    A1509 5385   5.123   2.296   4.566
  1011    A150a 5386   5.001   2.244   4.689
  1011    A150b 5387   5.180   2.360   4.756
  1011    A150c 5388   0.839   2.477   4.713
  1011    A150d 5389   0.914   2.491   4.790
  1011    A150e 5390   5.214   2.574   4.714
  1011    A150f 5391   0.885   2.464   4.605
  1011    A1510 5392   0.849   2.242   4.783
  1011    A1511 5393   0.818   2.184   4.905
  1011    A1512 5394   0.893   2.063   4.940
  1011    A1513 5395   0.882   2.019   5.044
  1011    A1514 5396   0.980   2.004   4.839
  1011    A1515 5397   1.106   1.918   4.837
  1011    A1516 5398   1.084   1.811   4.816
  1011    A1517 5399   1.156   2.020   4.723
  1011    A1518 5400   1.178   1.982   4.625
  1011    A1519 5401   1.275   2.101   4.788
  1011    A151a 5402   1.291   2.205   4.765
  1011    A151b 5403   1.391   2.000   4.777
  1011    A151c 5404   1.409   1.987   4.672
  1011    A151d 5405   1.351   1.868   4.853
  1011    A151e 5406   1.328   1.785   4.788
  1011    A151f 5407   1.222   1.910   4.943
  1011    A1520 5408   1.203   1.847   5.029
  1011    A1521 5409   1.238   2.069   4.946
  1011    A1522 5410   1.323   2.103   5.006
  1011    A1523 5411   1.156   2.130   4.992
  1011    A1524 5412   1.013   2.075   4.730
  1011    A1525 5413   0.945   2.192   4.687
  1011    A1526 5414   0.986   2.253   4.609
  1011    A1527 5415   5.163   2.281   4.983
  1011    A1528 5416   5.126   2.393   4.896
  1011    A1529 5417   5.065   2.511   4.939
  1011    A152a 5418   5.051   2.595   4.875
  1011    A152b 5419   5.050   2.521   5.077
  1011    A152c 5420   5.097   2.632   5.159
  1011    A152d 5421   5.178   2.674   5.102
  1011    A152e 5422   5.148   2.529   0.837
  1011    A152f 5423   0.823   2.514   0.845
  1011    A1530 5424   5.094   2.589   0.973
  1011    A1531 5425   5.151   2.562   1.057
  1011    A1532 5426   4.939   2.565   0.973
  1011    A1533 5427   4.918   2.460   0.966
  1011    A1534 5428   4.840   2.643   1.051
  1011    A1535 5429   4.791   2.722   0.946
  1011    A1536 5430   4.754   2.856   0.963
  1011    A1537 5431   4.742   2.961   0.859
  1011    A1538 5432   4.843   3.000   0.833
  1011    A1539 5433   4.670   3.034   0.889
  1011    A153a 5434   4.700   2.907   5.206
  1011    A153b 5435   4.740   2.891   1.101
  1011    A153c 5436   4.763   2.805   1.207
  1011    A153d 5437   4.827   2.675   1.190
  1011    A153e 5438   4.895   2.594   1.297
  1011    A153f 5439   5.003   2.580   1.286
  1011    A1540 5440   4.875   2.638   1.397
  1011    A1541 5441   4.859   2.494   1.302
  1011    A1542 5442   4.888   2.660   0.846
  1011    A1543 5443   4.840   2.600   5.197
  1011    A1544 5444   5.013   2.739   0.795
  1011    A1545 5445   4.993   2.832   5.169
  1011    A1546 5446   5.099   2.739   0.928
  1011    A1547 5447   5.065   2.803   1.001
  1011    A1548 5448   5.201   2.772   0.915
  1011    A1549 5449   5.096   2.425   5.165
  1011    A154a 5450   5.157   2.305   5.123
  1011    A154b 5451   0.785   2.253   5.204
  1011    A154c 5452   0.926   4.439   3.120
  1011    A154d 5453   0.884   4.336   3.138
  1011    A154e 5454   0.929   4.497   3.208
  1011    A154f 5455   1.032   4.426   3.102
  1011    A1550 5456   0.866   4.513   2.999
  1011    A1551 5457   5.142   4.530   3.020
  1011    A1552 5458   5.102   4.433   3.048
  1011    A1553 5459   5.100   4.565   2.926
  1011    A1554 5460   5.119   4.605   3.105
  1011    A1555 5461   0.884   4.430   2.868
  1011    A1556 5462   0.957   4.508   2.771
  1011    A1557 5463   0.976   4.467   2.637
  1011    A1558 5464   1.031   4.526   2.560
  1011    A1559 5465   0.935   4.332   2.609
  1011    A155a 5466   0.961   4.222   2.511
  1011    A155b 5467   1.074   4.212   2.503
  1011    A155c 5468   0.888   4.126   2.614
  1011    A155d 5469   0.960   4.045   2.653
  1011    A155e 5470   5.213   4.053   2.528
  1011    A155f 5471   5.128   4.001   2.571
  1011    A1560 5472   0.874   3.968   2.428
  1011    A1561 5473   0.944   3.909   2.493
  1011    A1562 5474   0.950   4.073   2.329
  1011    A1563 5475   1.058   4.056   2.332
  1011    A1564 5476   0.892   4.210   2.377
  1011    A1565 5477   0.904   4.294   2.306
  1011    A1566 5478   5.177   4.172   2.430
  1011    A1567 5479   5.121   4.148   2.347
  1011    A1568 5480   5.107   4.252   2.461
  1011    A1569 5481   0.878   4.252   2.703
  1011    A156a 5482   0.847   4.295   2.831
  1011    A156b 5483   0.794   4.230   2.899
  1011    A156c 5484   0.988   4.637   2.832
  1011    A156d 5485   0.935   4.650   2.967
  1011    A156e 5486   0.978   4.757   3.055
  1011    A156f 5487   0.951   4.762   3.156
  1011    A1570 5488   1.045   4.858   2.985
  1011    A1571 5489   1.093   5.005   3.001
  1011    A1572 5490   1.017   5.078   3.034
  1011    A1573 5491   1.112   5.000   2.843
  1011    A1574 5492   1.034   5.053   2.789
  1011    A1575 5493   1.244   5.066   2.807
  1011    A1576 5494   1.255   5.104   2.705
  1011    A1577 5495   1.349   4.979   2.859
  1011    A1578 5496   1.441   5.029   2.831
  1011    A1579 5497   1.366   4.830   2.861
  1011    A157a 5498   1.342   4.817   2.996
  1011    A157b 5499   1.353   4.698   3.071
  1011    A157c 5500   1.337   4.673   3.213
  1011    A157d 5501   1.285   4.575   3.219
  1011    A157e 5502   1.292   4.754   3.273
  1011    A157f 5503   1.435   4.651   3.243
  1011    A1580 5504   1.403   4.596   2.988
  1011    A1581 5505   1.403   4.600   2.850
  1011    A1582 5506   1.390   4.721   2.773
  1011    A1583 5507   1.383   4.729   2.618
  1011    A1584 5508   1.317   4.807   2.580
  1011    A1585 5509   1.328   4.631   2.600
  1011    A1586 5510   1.480   4.719   2.569
  1011    A1587 5511   1.342   4.968   3.016
  1011    A1588 5512   1.434   4.997   3.071
  1011    A1589 5513   1.226   5.064   3.051
  1011    A158a 5514   1.230   5.112   3.147
  1011    A158b 5515   1.249   5.167   2.932
  1011    A158c 5516   1.344   0.789   2.939
  1011    A158d 5517   1.164   0.803   2.920
  1011    A158e 5518   1.071   4.853   2.849
  1011    A158f 5519   1.059   4.741   2.762
  1011    A1590 5520   1.091   4.738   2.665
  1011    A1591 5521   5.024   2.864   4.762
  1011    A1592 5522   5.001   2.797   4.673
  1011    A1593 5523   5.041   2.807   4.848
  1011    A1594 5524   5.116   2.915   4.745
  1011    A1595 5525   4.913   2.970   4.774
  1011    A1596 5526   4.925   3.044   4.905
  1011    A1597 5527   4.847   3.119   4.909
  1011    A1598 5528   5.022   3.093   4.914
  1011    A1599 5529   4.918   2.981   4.990
  1011    A159a 5530   4.771   2.907   4.777
  1011    A159b 5531   4.707   2.962   4.664
  1011    A159c 5532   4.572   2.951   4.643
  1011    A159d 5533   4.521   3.004   4.562
  1011    A159e 5534   4.500   2.858   4.718
  1011    A159f 5535   4.356   2.833   4.766
  1011    A15a0 5536   4.299   2.768   4.704
  1011    A15a1 5537   4.426   2.763   4.892
  1011    A15a2 5538   4.421   2.651   4.896
  1011    A15a3 5539   4.376   2.848   5.006
  1011    A15a4 5540   4.439   2.848   5.098
  1011    A15a5 5541   4.224   2.807   5.008
  1011    A15a6 5542   4.207   2.702   5.011
  1011    A15a7 5543   4.147   2.866   4.884
  1011    A15a8 5544   4.081   2.800   4.815
  1011    A15a9 5545   4.262   2.942   4.814
  1011    A15aa 5546   4.237   3.027   4.742
  1011    A15ab 5547   4.356   2.985   4.937
  1011    A15ac 5548   4.442   3.043   4.903
  1011    A15ad 5549   4.317   3.058   5.010
  1011    A15ae 5550   4.555   2.801   4.828
  1011    A15af 5551   4.696   2.826   4.867
  1011    A15b0 5552   4.728   2.796   4.965
  1011    A15b1 5553   4.788   3.063   4.595
  1011    A15b2 5554   4.918   3.068   4.657
  1011    A15b3 5555   5.015   3.169   4.624
  1011    A15b4 5556   5.104   3.176   4.689
  1011    A15b5 5557   4.967   3.264   4.532
  1011    A15b6 5558   4.988   3.401   4.490
  1011    A15b7 5559   4.995   3.465   4.579
  1011    A15b8 5560   4.848   3.398   4.423
  1011    A15b9 5561   4.770   3.448   4.468
  1011    A15ba 5562   4.871   3.459   4.277
  1011    A15bb 5563   4.780   3.500   4.226
  1011    A15bc 5564   4.957   3.356   4.196
  1011    A15bd 5565   4.958   3.398   4.098
  1011    A15be 5566   4.965   3.211   4.212
  1011    A15bf 5567   5.092   3.211   4.263
  1011    A15c0 5568   5.175   3.098   4.255
  1011    A15c1 5569   0.894   3.114   4.255
  1011    A15c2 5570   0.939   3.018   4.264
  1011    A15c3 5571   0.932   3.174   4.348
  1011    A15c4 5572   0.938   3.153   4.159
  1011    A15c5 5573   5.099   2.973   4.225
  1011    A15c6 5574   4.957   2.975   4.202
  1011    A15c7 5575   4.886   3.095   4.185
  1011    A15c8 5576   4.739   3.108   4.138
  1011    A15c9 5577   4.725   3.147   4.035
  1011    A15ca 5578   4.698   3.165   4.223
  1011    A15cb 5579   4.698   3.002   4.138
  1011    A15cc 5580   5.100   3.360   4.262
  1011    A15cd 5581   5.182   3.387   4.194
  1011    A15ce 5582   5.089   3.462   4.381
  1011    A15cf 5583   5.182   3.497   4.431
  1011    A15d0 5584   4.985   3.562   4.314
  1011    A15d1 5585   5.025   3.604   4.219
  1011    A15d2 5586   4.939   3.645   4.373
  1011    A15d3 5587   4.844   3.259   4.479
  1011    A15d4 5588   4.748   3.161   4.499
  1011    A15d5 5589   4.644   3.169   4.465
  1011    A15d6 5590   3.918   4.016   4.518
  1011    A15d7 5591   3.820   4.026   4.567
  1011    A15d8 5592   3.949   4.116   4.493
  1011    A15d9 5593   3.978   3.957   4.591
  1011    A15da 5594   3.897   3.941   4.386
  1011    A15db 5595   3.825   4.034   4.300
  1011    A15dc 5596   3.883   4.122   4.264
  1011    A15dd 5597   3.738   4.065   4.352
  1011    A15de 5598   3.775   3.987   4.213
  1011    A15df 5599   3.818   3.808   4.406
  1011    A15e0 5600   3.891   3.702   4.341
  1011    A15e1 5601   3.844   3.571   4.336
  1011    A15e2 5602   3.891   3.489   4.289
  1011    A15e3 5603   3.731   3.552   4.421
  1011    A15e4 5604   3.639   3.444   4.471
  1011    A15e5 5605   3.693   3.372   4.534
  1011    A15e6 5606   3.567   3.561   4.550
  1011    A15e7 5607   3.584   3.572   4.659
  1011    A15e8 5608   3.417   3.549   4.527
  1011    A15e9 5609   3.349   3.636   4.552
  1011    A15ea 5610   3.392   3.415   4.605
  1011    A15eb 5611   3.435   3.418   4.704
  1011    A15ec 5612   3.451   3.300   4.505
  1011    A15ed 5613   3.513   3.234   4.572
  1011    A15ee 5614   3.523   3.377   4.389
  1011    A15ef 5615   3.532   3.319   4.297
  1011    A15f0 5616   3.421   3.495   4.375
  1011    A15f1 5617   3.320   3.469   4.348
  1011    A15f2 5618   3.459   3.573   4.302
  1011    A15f3 5619   3.658   3.656   4.481
  1011    A15f4 5620   3.689   3.788   4.472
  1011    A15f5 5621   3.626   3.861   4.527
  1011    A15f6 5622   4.020   3.754   4.284
  1011    A15f7 5623   4.031   3.892   4.317
  1011    A15f8 5624   4.156   3.955   4.317
  1011    A15f9 5625   4.160   4.057   4.361
  1011    A15fa 5626   4.265   3.871   4.266
  1011    A15fb 5627   4.416   3.877   4.240
  1011    A15fc 5628   4.432   3.946   4.160
  1011    A15fd 5629   4.387   3.737   4.177
  1011    A15fe 5630   4.379   3.750   4.067
  1011    A15ff 5631   4.493   3.648   4.237
  1011    A1600 5632   4.511   3.555   4.196
  1011    A1601 5633   4.454   3.643   4.389
  1011    A1602 5634   4.518   3.567   4.439
  1011    A1603 5635   4.327   3.652   4.464
  1011    A1604 5636   4.352   3.779   4.518
  1011    A1605 5637   4.291   3.826   4.644
  1011    A1606 5638   4.318   3.954   4.725
  1011    A1607 5639   4.311   3.936   4.832
  1011    A1608 5640   4.413   3.994   4.698
  1011    A1609 5641   4.248   4.030   4.692
  1011    A160a 5642   4.189   3.735   4.684
  1011    A160b 5643   4.158   3.616   4.629
  1011    A160c 5644   4.240   3.557   4.525
  1011    A160d 5645   4.229   3.412   4.484
  1011    A160e 5646   4.147   3.372   4.545
  1011    A160f 5647   4.325   3.362   4.498
  1011    A1610 5648   4.195   3.403   4.385
  1011    A1611 5649   4.491   3.780   4.450
  1011    A1612 5650   4.567   3.779   4.529
  1011    A1613 5651   4.539   3.867   4.331
  1011    A1614 5652   4.594   3.962   4.349
  1011    A1615 5653   4.619   3.747   4.257
  1011    A1616 5654   4.706   3.718   4.314
  1011    A1617 5655   4.671   3.771   4.162
  1011    A1618 5656   4.245   3.754   4.208
  1011    A1619 5657   4.128   3.684   4.231
  1011    A161a 5658   4.127   3.581   4.210
  1011    A161b 5659   2.527   1.605   4.269
  1011    A161c 5660   2.423   1.601   4.296
  1011    A161d 5661   2.598   1.549   4.333
  1011    A161e 5662   2.559   1.712   4.287
  1011    A161f 5663   2.532   1.563   4.121
  1011    A1620 5664   2.673   1.588   4.055
  1011    A1621 5665   2.761   1.564   4.119
  1011    A1622 5666   2.687   1.531   3.963
  1011    A1623 5667   2.689   1.690   4.036
  1011    A1624 5668   2.427   1.644   4.046
  1011    A1625 5669   2.337   1.548   3.988
  1011    A1626 5670   2.242   1.584   3.901
  1011    A1627 5671   2.177   1.514   3.861
  1011    A1628 5672   2.228   1.719   3.890
  1011    A1629 5673   2.131   1.817   3.826
  1011    A162a 5674   2.036   1.811   3.886
  1011    A162b 5675   2.232   1.928   3.888
  1011    A162c 5676   2.183   1.990   3.971
  1011    A162d 5677   2.264   2.021   3.755
  1011    A162e 5678   2.344   2.084   3.761
  1011    A162f 5679   2.125   2.086   3.736
  1011    A1630 5680   2.098   2.147   3.817
  1011    A1631 5681   2.029   1.978   3.680
  1011    A1632 5682   1.944   1.972   3.739
  1011    A1633 5683   2.114   1.843   3.674
  1011    A1634 5684   2.082   1.766   3.598
  1011    A1635 5685   2.257   1.911   3.642
  1011    A1636 5686   2.343   1.846   3.659
  1011    A1637 5687   2.274   1.950   3.541
  1011    A1638 5688   2.304   1.814   3.948
  1011    A1639 5689   2.405   1.787   4.045
  1011    A163a 5690   2.466   1.853   4.103
  1011    A163b 5691   2.367   1.418   4.032
  1011    A163c 5692   2.487   1.415   4.105
  1011    A163d 5693   2.551   1.299   4.141
  1011    A163e 5694   2.657   1.298   4.166
  1011    A163f 5695   2.465   1.187   4.126
  1011    A1640 5696   2.487   1.041   4.092
  1011    A1641 5697   2.565   1.033   4.011
  1011    A1642 5698   2.336   1.042   4.036
  1011    A1643 5699   2.351   1.023   3.931
  1011    A1644 5700   2.270   0.917   4.091
  1011    A1645 5701   2.178   0.878   4.042
  1011    A1646 5702   2.270   0.928   4.250
  1011    A1647 5703   2.214   0.841   4.295
  1011    A1648 5704   2.257   1.058   4.336
  1011    A1649 5705   2.389   1.045   4.382
  1011    A164a 5706   2.426   1.100   4.508
  1011    A164b 5707   2.561   1.060   4.578
  1011    A164c 5708   2.608   1.156   4.594
  1011    A164d 5709   2.539   1.007   4.667
  1011    A164e 5710   2.633   0.997   4.520
  1011    A164f 5711   2.330   1.195   4.557
  1011    A1650 5712   2.197   1.188   4.522
  1011    A1651 5713   2.150   1.118   4.412
  1011    A1652 5714   1.997   1.078   4.404
  1011    A1653 5715   1.967   1.017   4.488
  1011    A1654 5716   1.947   1.179   4.410
  1011    A1655 5717   1.973   1.021   4.317
  1011    A1656 5718   2.420   0.917   4.295
  1011    A1657 5719   2.449   0.834   4.356
  1011    A1658 5720   2.504   0.910   4.175
  1011    A1659 5721   2.610   0.873   4.181
  1011    A165a 5722   2.399   0.822   4.087
  1011    A165b 5723   2.446   0.811   3.988
  1011    A165c 5724   2.388   5.155   4.128
  1011    A165d 5725   2.339   1.189   4.070
  1011    A165e 5726   2.287   1.305   4.011
  1011    A165f 5727   2.201   1.301   3.939
  1011    A1660 5728   3.596   1.127   1.149
  1011    A1661 5729   3.665   1.119   1.061
  1011    A1662 5730   3.502   1.073   1.125
  1011    A1663 5731   3.633   1.048   1.217
  1011    A1664 5732   3.575   1.269   1.217
  1011    A1665 5733   3.502   1.371   1.121
  1011    A1666 5734   3.400   1.337   1.092
  1011    A1667 5735   3.554   1.396   1.027
  1011    A1668 5736   3.498   1.461   1.183
  1011    A1669 5737   3.708   1.321   1.259
  1011    A166a 5738   3.694   1.368   1.390
  1011    A166b 5739   3.791   1.451   1.446
  1011    A166c 5740   3.768   1.495   1.541
  1011    A166d 5741   3.908   1.468   1.373
  1011    A166e 5742   4.039   1.539   1.366
  1011    A166f 5743   4.108   1.504   1.441
  1011    A1670 5744   4.054   1.476   1.221
  1011    A1671 5745   4.135   1.408   1.199
  1011    A1672 5746   4.066   1.586   1.121
  1011    A1673 5747   4.043   1.568   1.018
  1011    A1674 5748   4.205   1.649   1.149
  1011    A1675 5749   4.226   1.720   1.067
  1011    A1676 5750   4.199   1.721   1.287
  1011    A1677 5751   4.204   1.827   1.271
  1011    A1678 5752   4.049   1.687   1.342
  1011    A1679 5753   4.020   1.761   1.418
  1011    A167a 5754   3.984   1.695   1.200
  1011    A167b 5755   3.872   1.680   1.204
  1011    A167c 5756   3.989   1.795   1.154
  1011    A167d 5757   3.924   1.410   1.254
  1011    A167e 5758   3.827   1.339   1.186
  1011    A167f 5759   3.844   1.302   1.090
  1011    A1680 5760   3.564   1.330   1.445
  1011    A1681 5761   3.500   1.251   1.354
  1011    A1682 5762   3.391   1.164   1.382
  1011    A1683 5763   3.343   1.100   1.306
  1011    A1684 5764   3.355   1.170   1.514
  1011    A1685 5765   3.251   1.114   1.620
  1011    A1686 5766   3.146   1.138   1.600
  1011    A1687 5767   3.331   1.215   1.721
  1011    A1688 5768   3.260   1.296   1.762
  1011    A1689 5769   3.373   1.123   1.840
  1011    A168a 5770   3.408   1.175   1.938
  1011    A168b 5771   3.477   1.014   1.792
  1011    A168c 5772   3.529   0.968   1.877
  1011    A168d 5773   3.576   1.015   1.673
  1011    A168e 5774   3.503   0.919   1.606
  1011    A168f 5775   3.554   0.832   1.508
  1011    A1690 5776   3.476   5.133   1.468
  1011    A1691 5777   3.414   5.102   1.552
  1011    A1692 5778   3.533   5.040   1.464
  1011    A1693 5779   3.414   5.139   1.380
  1011    A1694 5780   3.675   0.876   1.456
  1011    A1695 5781   3.738   0.989   1.503
  1011    A1696 5782   3.704   1.052   1.625
  1011    A1697 5783   3.796   1.145   1.708
  1011    A1698 5784   3.760   1.145   1.810
  1011    A1699 5785   3.799   1.251   1.669
  1011    A169a 5786   3.902   1.106   1.709
  1011    A169b 5787   3.392   0.913   1.709
  1011    A169c 5788   3.386   0.818   1.750
  1011    A169d 5789   3.252   0.977   1.689
  1011    A169e 5790   3.173   0.905   1.667
  1011    A169f 5791   3.249   1.024   1.842
  1011    A16a0 5792   3.251   0.938   1.917
  1011    A16a1 5793   3.157   1.072   1.867
  1011    A16a2 5794   3.416   1.248   1.603
  1011    A16a3 5795   3.528   1.325   1.578
  1011    A16a4 5796   3.573   1.377   1.668
  1011    A16a5 5797   2.051   3.323   1.304
  1011    A16a6 5798   2.154   3.339   1.278
  1011    A16a7 5799   2.004   3.409   1.265
  1011    A16a8 5800   2.011   3.248   1.240
  1011    A16a9 5801   2.017   3.320   1.455
  1011    A16aa 5802   2.022   3.463   1.507
  1011    A16ab 5803   1.941   3.527   1.459
  1011    A16ac 5804   2.116   3.514   1.482
  1011    A16ad 5805   2.004   3.458   1.615
  1011    A16ae 5806   2.100   3.233   1.550
  1011    A16af 5807   2.011   3.182   1.646
  1011    A16b0 5808   2.053   3.103   1.758
  1011    A16b1 5809   1.983   3.055   1.815
  1011    A16b2 5810   2.194   3.083   1.766
  1011    A16b3 5811   2.287   2.968   1.801
  1011    A16b4 5812   2.248   2.867   1.791
  1011    A16b5 5813   2.370   3.017   1.686
  1011    A16b6 5814   2.369   2.951   1.597
  1011    A16b7 5815   2.517   3.023   1.743
  1011    A16b8 5816   2.591   3.091   1.692
  1011    A16b9 5817   2.547   2.873   1.764
  1011    A16ba 5818   2.526   2.812   1.676
  1011    A16bb 5819   2.464   2.835   1.898
  1011    A16bc 5820   2.404   2.747   1.872
  1011    A16bd 5821   2.380   2.954   1.931
  1011    A16be 5822   2.345   2.949   2.028
  1011    A16bf 5823   2.482   3.072   1.896
  1011    A16c0 5824   2.574   3.068   1.953
  1011    A16c1 5825   2.446   3.181   1.894
  1011    A16c2 5826   2.277   3.133   1.669
  1011    A16c3 5827   2.238   3.212   1.558
  1011    A16c4 5828   2.310   3.237   1.480
  1011    A16c5 5829   1.873   3.197   1.605
  1011    A16c6 5830   1.872   3.269   1.481
  1011    A16c7 5831   1.754   3.275   1.400
  1011    A16c8 5832   1.768   3.324   1.303
  1011    A16c9 5833   1.639   3.207   1.447
  1011    A16ca 5834   1.489   3.180   1.419
  1011    A16cb 5835   1.434   3.272   1.419
  1011    A16cc 5836   1.493   3.100   1.556
  1011    A16cd 5837   1.426   3.159   1.616
  1011    A16ce 5838   1.423   2.965   1.535
  1011    A16cf 5839   1.383   2.914   1.625
  1011    A16d0 5840   1.519   2.890   1.434
  1011    A16d1 5841   1.474   2.792   1.432
  1011    A16d2 5842   1.663   2.889   1.395
  1011    A16d3 5843   1.644   2.955   1.275
  1011    A16d4 5844   1.742   2.962   1.170
  1011    A16d5 5845   1.724   3.016   1.031
  1011    A16d6 5846   1.784   2.974   0.959
  1011    A16d7 5847   1.621   3.005   0.988
  1011    A16d8 5848   1.751   3.123   1.035
  1011    A16d9 5849   1.858   2.895   1.208
  1011    A16da 5850   1.884   2.829   1.333
  1011    A16db 5851   1.782   2.814   1.433
  1011    A16dc 5852   1.783   2.733   1.559
  1011    A16dd 5853   1.817   2.634   1.535
  1011    A16de 5854   1.682   2.716   1.596
  1011    A16df 5855   1.846   2.781   1.638
  1011    A16e0 5856   1.500   2.962   1.295
  1011    A16e1 5857   1.439   2.893   1.235
  1011    A16e2 5858   1.410   3.085   1.327
  1011    A16e3 5859   1.355   3.126   1.244
  1011    A16e4 5860   1.316   3.010   1.433
  1011    A16e5 5861   1.244   3.082   1.478
  1011    A16e6 5862   1.253   2.924   1.391
  1011    A16e7 5863   1.637   3.142   1.563
  1011    A16e8 5864   1.751   3.132   1.651
  1011    A16e9 5865   1.749   3.070   1.740
  1011    A16ea 5866   4.651   3.669   1.731
  1011    A16eb 5867   4.558   3.613   1.750
  1011    A16ec 5868   4.737   3.599   1.734
  1011    A16ed 5869   4.632   3.693   1.622
  1011    A16ee 5870   4.663   3.790   1.826
  1011    A16ef 5871   4.532   3.879   1.806
  1011    A16f0 5872   4.453   3.811   1.837
  1011    A16f1 5873   4.549   3.966   1.875
  1011    A16f2 5874   4.511   3.914   1.704
  1011    A16f3 5875   4.787   3.869   1.787
  1011    A16f4 5876   4.880   3.856   1.887
  1011    A16f5 5877   4.998   3.944   1.888
  1011    A16f6 5878   5.067   3.939   1.970
  1011    A16f7 5879   5.031   4.004   1.765
  1011    A16f8 5880   5.076   4.152   1.738
  1011    A16f9 5881   5.181   4.151   1.716
  1011    A16fa 5882   4.971   4.157   1.618
  1011    A16fb 5883   5.020   4.159   1.517
  1011    A16fc 5884   4.879   4.277   1.660
  1011    A16fd 5885   4.777   4.284   1.612
  1011    A16fe 5886   4.984   4.391   1.625
  1011    A16ff 5887   5.035   4.392   1.529
  1011    A1700 5888   5.079   4.381   1.750
  1011    A1701 5889   5.182   4.380   1.732
  1011    A1702 5890   5.040   4.258   1.836
  1011    A1703 5891   5.086   4.249   1.938
  1011    A1704 5892   4.883   4.272   1.827
  1011    A1705 5893   4.822   4.188   1.863
  1011    A1706 5894   4.850   4.352   1.892
  1011    A1707 5895   4.933   4.019   1.671
  1011    A1708 5896   4.804   3.964   1.681
  1011    A1709 5897   4.722   3.990   1.611
  1011    A170a 5898   4.823   3.787   2.001
  1011    A170b 5899   4.692   3.749   1.974
  1011    A170c 5900   4.600   3.728   2.085
  1011    A170d 5901   4.490   3.725   2.076
  1011    A170e 5902   4.658   3.720   2.209
  1011    A170f 5903   4.620   3.746   2.352
  1011    A1710 5904   4.573   3.841   2.355
  1011    A1711 5905   4.775   3.743   2.383
  1011    A1712 5906   4.827   3.832   2.421
  1011    A1713 5907   4.798   3.629   2.491
  1011    A1714 5908   4.886   3.617   2.560
  1011    A1715 5909   4.745   3.496   2.437
  1011    A1716 5910   4.788   3.432   2.512
  1011    A1717 5911   4.751   3.436   2.298
  1011    A1718 5912   4.612   3.447   2.288
  1011    A1719 5913   4.537   3.415   2.171
  1011    A171a 5914   4.390   3.435   2.160
  1011    A171b 5915   4.333   3.339   2.149
  1011    A171c 5916   4.368   3.507   2.072
  1011    A171d 5917   4.349   3.493   2.249
  1011    A171e 5918   4.626   3.368   2.078
  1011    A171f 5919   4.763   3.343   2.092
  1011    A1720 5920   4.835   3.380   2.206
  1011    A1721 5921   4.986   3.359   2.232
  1011    A1722 5922   5.013   3.388   2.337
  1011    A1723 5923   5.009   3.250   2.212
  1011    A1724 5924   5.045   3.416   2.163
  1011    A1725 5925   4.588   3.509   2.421
  1011    A1726 5926   4.535   3.442   2.491
  1011    A1727 5927   4.556   3.654   2.459
  1011    A1728 5928   4.458   3.674   2.491
  1011    A1729 5929   4.669   3.668   2.576
  1011    A172a 5930   4.647   3.601   2.658
  1011    A172b 5931   4.663   3.768   2.626
  1011    A172c 5932   4.794   3.728   2.232
  1011    A172d 5933   4.879   3.774   2.134
  1011    A172e 5934   4.975   3.809   2.156
  1011    A172f 5935   4.465   2.641   1.456
  1011    A1730 5936   4.561   2.644   1.404
  1011    A1731 5937   4.414   2.553   1.422
  1011    A1732 5938   4.402   2.726   1.424
  1011    A1733 5939   4.479   2.627   1.603
  1011    A1734 5940   4.343   2.608   1.674
  1011    A1735 5941   4.297   2.510   1.644
  1011    A1736 5942   4.271   2.676   1.635
  1011    A1737 5943   4.333   2.606   1.779
  1011    A1738 5944   4.537   2.752   1.660
  1011    A1739 5945   4.674   2.719   1.694
  1011    A173a 5946   4.758   2.817   1.744
  1011    A173b 5947   4.861   2.795   1.772
  1011    A173c 5948   4.703   2.944   1.758
  1011    A173d 5949   4.735   3.084   1.815
  1011    A173e 5950   4.805   3.135   1.752
  1011    A173f 5951   4.586   3.115   1.790
  1011    A1740 5952   4.565   3.182   1.703
  1011    A1741 5953   4.527   3.162   1.924
  1011    A1742 5954   4.415   3.158   1.933
  1011    A1743 5955   4.607   3.295   1.943
  1011    A1744 5956   4.591   3.364   1.861
  1011    A1745 5957   4.759   3.261   1.968
  1011    A1746 5958   4.820   3.313   1.890
  1011    A1747 5959   4.763   3.109   1.966
  1011    A1748 5960   4.853   3.057   2.008
  1011    A1749 5961   4.616   3.075   2.020
  1011    A174a 5962   4.602   3.103   2.124
  1011    A174b 5963   4.589   2.964   2.014
  1011    A174c 5964   4.575   2.975   1.738
  1011    A174d 5965   4.479   2.880   1.693
  1011    A174e 5966   4.373   2.910   1.673
  1011    A174f 5967   4.698   2.578   1.689
  1011    A1750 5968   4.587   2.512   1.635
  1011    A1751 5969   4.575   2.370   1.630
  1011    A1752 5970   4.493   2.316   1.590
  1011    A1753 5971   4.676   2.307   1.697
  1011    A1754 5972   4.682   2.180   1.787
  1011    A1755 5973   4.589   2.171   1.845
  1011    A1756 5974   4.792   2.254   1.873
  1011    A1757 5975   4.760   2.294   1.970
  1011    A1758 5976   4.910   2.158   1.891
  1011    A1759 5977   4.970   2.172   1.981
  1011    A175a 5978   4.976   2.145   1.751
  1011    A175b 5979   5.063   2.082   1.770
  1011    A175c 5980   4.994   2.234   1.632
  1011    A175d 5981   4.902   2.168   1.556
  1011    A175e 5982   4.907   2.167   1.415
  1011    A175f 5983   4.850   2.046   1.340
  1011    A1760 5984   4.860   1.950   1.394
  1011    A1761 5985   4.737   2.056   1.320
  1011    A1762 5986   4.903   2.035   1.243
  1011    A1763 5987   5.013   2.247   1.365
  1011    A1764 5988   5.102   2.323   1.439
  1011    A1765 5989   5.103   2.314   1.581
  1011    A1766 5990   0.808   2.338   1.637
  1011    A1767 5991   0.805   2.309   1.743
  1011    A1768 5992   0.879   2.266   1.602
  1011    A1769 5993   0.845   2.441   1.625
  1011    A176a 5994   4.869   2.062   1.662
  1011    A176b 5995   4.909   1.968   1.621
  1011    A176c 5996   4.744   2.037   1.747
  1011    A176d 5997   4.677   1.951   1.717
  1011    A176e 5998   4.820   2.023   1.884
  1011    A176f 5999   4.763   2.004   1.978
  1011    A1770 6000   4.890   1.941   1.883
  1011    A1771 6001   4.777   2.368   1.769
  1011    A1772 6002   4.796   2.509   1.770
  1011    A1773 6003   4.859   2.557   1.844
  1011    A1774 6004   1.295   3.653   2.657
  1011    A1775 6005   1.290   3.724   2.573
  1011    A1776 6006   1.266   3.559   2.614
  1011    A1777 6007   1.404   3.641   2.684
  1011    A1778 6008   1.218   3.699   2.786
  1011    A1779 6009   1.066   3.668   2.751
  1011    A177a 6010   1.014   3.678   2.844
  1011    A177b 6011   1.023   3.723   2.668
  1011    A177c 6012   1.056   3.564   2.719
  1011    A177d 6013   1.241   3.845   2.828
  1011    A177e 6014   1.281   3.842   2.965
  1011    A177f 6015   1.323   3.960   3.037
  1011    A1780 6016   1.368   3.941   3.131
  1011    A1781 6017   1.319   4.073   2.971
  1011    A1782 6018   1.387   4.202   2.982
  1011    A1783 6019   1.487   4.193   2.999
  1011    A1784 6020   1.372   4.209   2.825
  1011    A1785 6021   1.465   4.196   2.760
  1011    A1786 6022   1.304   4.348   2.785
  1011    A1787 6023   1.262   4.372   2.689
  1011    A1788 6024   1.415   4.447   2.835
  1011    A1789 6025   1.512   4.424   2.785
  1011    A178a 6026   1.422   4.443   2.993
  1011    A178b 6027   1.517   4.432   3.046
  1011    A178c 6028   1.322   4.334   3.037
  1011    A178d 6029   1.281   4.343   3.134
  1011    A178e 6030   1.215   4.362   2.917
  1011    A178f 6031   1.124   4.301   2.912
  1011    A1790 6032   1.181   4.468   2.918
  1011    A1791 6033   1.300   4.078   2.838
  1011    A1792 6034   1.256   3.969   2.755
  1011    A1793 6035   1.245   3.973   2.650
  1011    A1794 6036   1.299   3.709   3.017
  1011    A1795 6037   1.272   3.618   2.909
  1011    A1796 6038   1.283   3.477   2.928
  1011    A1797 6039   1.259   3.401   2.859
  1011    A1798 6040   1.339   3.442   3.052
  1011    A1799 6041   1.391   3.320   3.115
  1011    A179a 6042   1.318   3.254   3.155
  1011    A179b 6043   1.432   3.414   3.234
  1011    A179c 6044   1.359   3.409   3.314
  1011    A179d 6045   1.578   3.387   3.272
  1011    A179e 6046   1.617   3.424   3.373
  1011    A179f 6047   1.656   3.427   3.143
  1011    A17a0 6048   1.764   3.428   3.173
  1011    A17a1 6049   1.631   3.539   3.042
  1011    A17a2 6050   1.607   3.453   2.940
  1011    A17a3 6051   1.618   3.484   2.805
  1011    A17a4 6052   1.603   3.390   2.690
  1011    A17a5 6053   1.619   3.438   2.593
  1011    A17a6 6054   1.517   3.325   2.677
  1011    A17a7 6055   1.688   3.321   2.707
  1011    A17a8 6056   1.659   3.620   2.790
  1011    A17a9 6057   1.699   3.699   2.892
  1011    A17aa 6058   1.696   3.664   3.029
  1011    A17ab 6059   1.736   3.745   3.145
  1011    A17ac 6060   1.666   3.737   3.229
  1011    A17ad 6061   1.759   3.855   3.116
  1011    A17ae 6062   1.834   3.718   3.190
  1011    A17af 6063   1.623   3.327   3.028
  1011    A17b0 6064   1.706   3.267   2.989
  1011    A17b1 6065   1.513   3.233   3.087
  1011    A17b2 6066   1.490   3.133   3.051
  1011    A17b3 6067   1.573   3.227   3.238
  1011    A17b4 6068   1.675   3.181   3.241
  1011    A17b5 6069   1.505   3.179   3.313
  1011    A17b6 6070   1.371   3.527   3.148
  1011    A17b7 6071   1.351   3.664   3.140
  1011    A17b8 6072   1.389   3.728   3.219
  1011    A17b9 6073   4.258   1.535   1.843
  1011    A17ba 6074   4.265   1.594   1.936
  1011    A17bb 6075   4.351   1.480   1.828
  1011    A17bc 6076   4.262   1.598   1.752
  1011    A17bd 6077   4.136   1.445   1.851
  1011    A17be 6078   4.136   1.336   1.747
  1011    A17bf 6079   4.145   1.388   1.649
  1011    A17c0 6080   4.043   1.281   1.756
  1011    A17c1 6081   4.227   1.268   1.758
  1011    A17c2 6082   4.011   1.537   1.833
  1011    A17c3 6083   3.936   1.530   1.955
  1011    A17c4 6084   3.833   1.620   1.988
  1011    A17c5 6085   3.795   1.622   2.085
  1011    A17c6 6086   3.811   1.719   1.882
  1011    A17c7 6087   3.735   1.843   1.850
  1011    A17c8 6088   3.771   1.919   1.919
  1011    A17c9 6089   3.826   1.841   1.716
  1011    A17ca 6090   3.897   1.920   1.733
  1011    A17cb 6091   3.726   1.857   1.595
  1011    A17cc 6092   3.758   1.820   1.498
  1011    A17cd 6093   3.690   2.006   1.612
  1011    A17ce 6094   3.779   2.069   1.624
  1011    A17cf 6095   3.593   2.007   1.741
  1011    A17d0 6096   3.639   2.070   1.825
  1011    A17d1 6097   3.586   1.865   1.790
  1011    A17d2 6098   3.501   1.842   1.855
  1011    A17d3 6099   3.590   1.790   1.649
  1011    A17d4 6100   3.508   1.793   1.585
  1011    A17d5 6101   3.595   1.682   1.663
  1011    A17d6 6102   3.884   1.715   1.767
  1011    A17d7 6103   3.997   1.636   1.748
  1011    A17d8 6104   4.061   1.649   1.659
  1011    A17d9 6105   4.001   1.439   2.042
  1011    A17da 6106   4.121   1.387   1.995
  1011    A17db 6107   4.213   1.309   2.070
  1011    A17dc 6108   4.310   1.275   2.035
  1011    A17dd 6109   4.177   1.297   2.205
  1011    A17de 6110   4.224   1.244   2.335
  1011    A17df 6111   4.239   1.128   2.332
  1011    A17e0 6112   4.087   1.291   2.397
  1011    A17e1 6113   4.009   1.211   2.415
  1011    A17e2 6114   4.110   1.363   2.533
  1011    A17e3 6115   4.046   1.361   2.622
  1011    A17e4 6116   4.173   1.495   2.498
  1011    A17e5 6117   4.183   1.553   2.588
  1011    A17e6 6118   4.131   1.588   2.386
  1011    A17e7 6119   4.244   1.564   2.308
  1011    A17e8 6120   4.285   1.648   2.202
  1011    A17e9 6121   4.426   1.646   2.143
  1011    A17ea 6122   4.443   1.546   2.112
  1011    A17eb 6123   4.489   1.664   2.231
  1011    A17ec 6124   4.444   1.726   2.068
  1011    A17ed 6125   4.189   1.752   2.171
  1011    A17ee 6126   4.081   1.779   2.261
  1011    A17ef 6127   4.038   1.694   2.362
  1011    A17f0 6128   3.919   1.726   2.452
  1011    A17f1 6129   3.849   1.776   2.386
  1011    A17f2 6130   3.887   1.639   2.505
  1011    A17f3 6131   3.946   1.803   2.521
  1011    A17f4 6132   4.308   1.468   2.415
  1011    A17f5 6133   4.400   1.506   2.450
  1011    A17f6 6134   4.328   1.314   2.427
  1011    A17f7 6135   4.427   1.270   2.412
  1011    A17f8 6136   4.255   1.290   2.569
  1011    A17f9 6137   4.318   1.337   2.645
  1011    A17fa 6138   4.222   1.181   2.594
  1011    A17fb 6139   4.060   1.341   2.254
  1011    A17fc 6140   3.966   1.419   2.180
  1011    A17fd 6141   3.884   1.459   2.228
  1011    A17fe 6142   3.203   4.032   3.316
  1011    A17ff 6143   3.127   4.066   3.389
  1011    A1800 6144   3.290   3.978   3.357
  1011    A1801 6145   3.234   4.124   3.265
  1011    A1802 6146   3.142   3.935   3.208
  1011    A1803 6147   3.079   3.817   3.294
  1011    A1804 6148   3.008   3.850   3.372
  1011    A1805 6149   3.020   3.749   3.238
  1011    A1806 6150   3.169   3.768   3.339
  1011    A1807 6151   3.237   3.879   3.103
  1011    A1808 6152   3.189   3.923   2.975
  1011    A1809 6153   3.247   3.869   2.856
  1011    A180a 6154   3.221   3.902   2.751
  1011    A180b 6155   3.357   3.783   2.870
  1011    A180c 6156   3.435   3.684   2.793
  1011    A180d 6157   3.516   3.729   2.734
  1011    A180e 6158   3.481   3.618   2.932
  1011    A180f 6159   3.587   3.636   2.966
  1011    A1810 6160   3.449   3.465   2.918
  1011    A1811 6161   3.434   3.401   3.006
  1011    A1812 6162   3.564   3.423   2.818
  1011    A1813 6163   3.666   3.458   2.849
  1011    A1814 6164   3.511   3.471   2.678
  1011    A1815 6165   3.477   3.391   2.621
  1011    A1816 6166   3.387   3.556   2.708
  1011    A1817 6167   3.306   3.568   2.635
  1011    A1818 6168   3.324   3.476   2.827
  1011    A1819 6169   3.293   3.375   2.788
  1011    A181a 6170   3.238   3.518   2.881
  1011    A181b 6171   3.394   3.733   2.988
  1011    A181c 6172   3.345   3.779   3.112
  1011    A181d 6173   3.372   3.739   3.208
  1011    A181e 6174   3.068   4.006   2.993
  1011    A181f 6175   3.033   4.010   3.131
  1011    A1820 6176   2.918   4.071   3.180
  1011    A1821 6177   2.879   4.061   3.277
  1011    A1822 6178   2.837   4.125   3.075
  1011    A1823 6179   2.701   4.189   3.056
  1011    A1824 6180   2.617   4.110   3.054
  1011    A1825 6181   2.737   4.197   2.902
  1011    A1826 6182   2.674   4.134   2.837
  1011    A1827 6183   2.703   4.344   2.849
  1011    A1828 6184   2.691   4.361   2.748
  1011    A1829 6185   2.798   4.442   2.922
  1011    A182a 6186   2.772   4.547   2.893
  1011    A182b 6187   2.945   4.417   2.943
  1011    A182c 6188   2.930   4.398   3.082
  1011    A182d 6189   3.032   4.411   3.179
  1011    A182e 6190   2.998   4.387   3.320
  1011    A182f 6191   2.931   4.472   3.347
  1011    A1830 6192   2.936   4.298   3.329
  1011    A1831 6193   3.086   4.396   3.382
  1011    A1832 6194   3.158   4.445   3.122
  1011    A1833 6195   3.175   4.485   2.990
  1011    A1834 6196   3.068   4.481   2.889
  1011    A1835 6197   3.080   4.531   2.752
  1011    A1836 6198   2.988   4.505   2.687
  1011    A1837 6199   3.094   4.631   2.760
  1011    A1838 6200   3.173   4.489   2.708
  1011    A1839 6201   2.780   4.423   3.079
  1011    A183a 6202   2.763   4.510   3.139
  1011    A183b 6203   2.655   4.331   3.100
  1011    A183c 6204   2.585   4.345   3.194
  1011    A183d 6205   2.583   4.366   2.954
  1011    A183e 6206   2.489   4.314   2.925
  1011    A183f 6207   2.559   4.471   2.957
  1011    A1840 6208   2.866   4.122   2.942
  1011    A1841 6209   2.985   4.067   2.891
  1011    A1842 6210   3.007   4.060   2.786
  1011    A1843 6211   2.282   3.520   2.790
  1011    A1844 6212   2.186   3.485   2.754
  1011    A1845 6213   2.288   3.468   2.892
  1011    A1846 6214   2.356   3.479   2.711
  1011    A1847 6215   2.279   3.674   2.794
  1011    A1848 6216   2.144   3.713   2.865
  1011    A1849 6217   2.075   3.678   2.795
  1011    A184a 6218   2.122   3.677   2.968
  1011    A184b 6219   2.114   3.819   2.877
  1011    A184c 6220   2.277   3.747   2.655
  1011    A184d 6221   2.383   3.839   2.656
  1011    A184e 6222   2.416   3.921   2.544
  1011    A184f 6223   2.497   3.990   2.556
  1011    A1850 6224   2.338   3.896   2.424
  1011    A1851 6225   2.309   3.951   2.290
  1011    A1852 6226   2.394   3.925   2.228
  1011    A1853 6227   2.199   3.833   2.282
  1011    A1854 6228   2.228   3.747   2.209
  1011    A1855 6229   2.067   3.909   2.242
  1011    A1856 6230   1.974   3.854   2.256
  1011    A1857 6231   2.102   3.956   2.097
  1011    A1858 6232   2.137   3.869   2.036
  1011    A1859 6233   2.209   4.075   2.114
  1011    A185a 6234   2.302   4.073   2.056
  1011    A185b 6235   2.238   4.087   2.268
  1011    A185c 6236   2.278   4.177   2.314
  1011    A185d 6237   2.092   4.045   2.320
  1011    A185e 6238   2.088   4.030   2.427
  1011    A185f 6239   2.015   4.120   2.304
  1011    A1860 6240   2.232   3.805   2.429
  1011    A1861 6241   2.194   3.729   2.539
  1011    A1862 6242   2.110   3.662   2.536
  1011    A1863 6243   2.468   3.819   2.772
  1011    A1864 6244   2.411   3.722   2.866
  1011    A1865 6245   2.480   3.670   2.975
  1011    A1866 6246   2.449   3.579   3.027
  1011    A1867 6247   2.610   3.714   2.976
  1011    A1868 6248   2.745   3.646   3.002
  1011    A1869 6249   2.778   3.669   3.105
  1011    A186a 6250   2.813   3.746   2.900
  1011    A186b 6251   2.876   3.814   2.962
  1011    A186c 6252   2.902   3.658   2.801
  1011    A186d 6253   2.981   3.720   2.756
  1011    A186e 6254   2.789   3.587   2.719
  1011    A186f 6255   2.718   3.653   2.670
  1011    A1870 6256   2.801   3.479   2.615
  1011    A1871 6257   2.744   3.384   2.706
  1011    A1872 6258   2.650   3.292   2.665
  1011    A1873 6259   2.582   3.196   2.761
  1011    A1874 6260   2.653   3.144   2.815
  1011    A1875 6261   2.526   3.114   2.708
  1011    A1876 6262   2.515   3.234   2.836
  1011    A1877 6263   2.621   3.289   2.526
  1011    A1878 6264   2.661   3.381   2.442
  1011    A1879 6265   2.755   3.481   2.481
  1011    A187a 6266   2.779   3.605   2.397
  1011    A187b 6267   2.687   3.652   2.370
  1011    A187c 6268   2.831   3.586   2.305
  1011    A187d 6269   2.840   3.675   2.453
  1011    A187e 6270   2.724   3.482   2.821
  1011    A187f 6271   2.613   3.492   2.827
  1011    A1880 6272   2.798   3.500   2.961
  1011    A1881 6273   2.793   3.414   3.030
  1011    A1882 6274   2.946   3.536   2.902
  1011    A1883 6275   3.011   3.565   2.989
  1011    A1884 6276   2.994   3.459   2.839
  1011    A1885 6277   2.669   3.799   2.885
  1011    A1886 6278   2.599   3.858   2.784
  1011    A1887 6279   2.658   3.913   2.711
  1011    A1888 6280   3.324   2.280   4.869
  1011    A1889 6281   3.364   2.192   4.822
  1011    A188a 6282   3.389   2.364   4.846
  1011    A188b 6283   3.235   2.294   4.806
  1011    A188c 6284   3.285   2.270   5.026
  1011    A188d 6285   3.156   2.180   5.039
  1011    A188e 6286   3.071   2.246   5.061
  1011    A188f 6287   3.158   2.105   5.118
  1011    A1890 6288   3.147   2.126   4.946
  1011    A1891 6289   3.267   2.407   5.102
  1011    A1892 6290   3.359   2.408   5.212
  1011    A1893 6291   3.375   2.521   0.868
  1011    A1894 6292   3.450   2.530   0.947
  1011    A1895 6293   3.286   2.625   0.832
  1011    A1896 6294   3.263   2.778   0.865
  1011    A1897 6295   3.358   2.826   0.862
  1011    A1898 6296   3.173   2.772   5.158
  1011    A1899 6297   3.220   2.816   5.065
  1011    A189a 6298   3.039   2.833   5.192
  1011    A189b 6299   2.960   2.812   5.123
  1011    A189c 6300   3.077   2.979   5.211
  1011    A189d 6301   3.135   3.016   5.132
  1011    A189e 6302   3.161   2.981   0.917
  1011    A189f 6303   3.268   3.011   0.902
  1011    A18a0 6304   3.167   2.836   0.972
  1011    A18a1 6305   3.199   2.818   1.077
  1011    A18a2 6306   3.028   2.786   0.917
  1011    A18a3 6307   2.937   2.830   0.965
  1011    A18a4 6308   3.026   2.677   0.931
  1011    A18a5 6309   3.211   2.624   5.146
  1011    A18a6 6310   3.191   2.518   5.062
  1011    A18a7 6311   3.129   2.510   4.971
  1011    A18a8 6312   3.438   2.285   5.211
  1011    A18a9 6313   3.392   2.201   5.104
  1011    A18aa 6314   3.431   2.067   5.091
  1011    A18ab 6315   3.376   2.001   5.023
  1011    A18ac 6316   3.509   2.024   5.188
  1011    A18ad 6317   3.565   1.891   0.800
  1011    A18ae 6318   3.484   1.824   0.822
  1011    A18af 6319   3.615   1.970   0.926
  1011    A18b0 6320   3.558   1.951   1.018
  1011    A18b1 6321   3.768   1.923   0.953
  1011    A18b2 6322   3.809   1.940   1.049
  1011    A18b3 6323   3.847   1.988   0.836
  1011    A18b4 6324   3.957   1.971   0.861
  1011    A18b5 6325   3.819   2.115   5.197
  1011    A18b6 6326   3.778   2.057   5.077
  1011    A18b7 6327   3.758   2.124   4.958
  1011    A18b8 6328   3.741   2.049   4.830
  1011    A18b9 6329   3.820   1.972   4.818
  1011    A18ba 6330   3.742   2.114   4.744
  1011    A18bb 6331   3.649   1.997   4.828
  1011    A18bc 6332   3.788   2.260   4.975
  1011    A18bd 6333   3.824   2.318   5.095
  1011    A18be 6334   3.850   2.250   5.213
  1011    A18bf 6335   3.911   2.309   0.914
  1011    A18c0 6336   3.842   2.288   1.002
  1011    A18c1 6337   4.012   2.265   0.935
  1011    A18c2 6338   3.922   2.418   0.906
  1011    A18c3 6339   3.797   1.917   5.125
  1011    A18c4 6340   3.876   1.857   5.077
  1011    A18c5 6341   3.686   1.817   5.167
  1011    A18c6 6342   3.667   1.730   5.104
  1011    A18c7 6343   3.752   1.779   0.884
  1011    A18c8 6344   3.683   1.709   0.940
  1011    A18c9 6345   3.843   1.711   0.872
  1011    A18ca 6346   3.562   2.099   0.862
  1011    A18cb 6347   3.530   2.236   0.874
  1011    A18cc 6348   3.555   2.293   0.965
  1011    A18cd 6349   3.682   2.372   3.272
  1011    A18ce 6350   3.642   2.337   3.369
  1011    A18cf 6351   3.665   2.479   3.260
  1011    A18d0 6352   3.617   2.317   3.198
  1011    A18d1 6353   3.840   2.342   3.262
  1011    A18d2 6354   3.849   2.188   3.269
  1011    A18d3 6355   3.811   2.143   3.366
  1011    A18d4 6356   3.957   2.163   3.257
  1011    A18d5 6357   3.805   2.144   3.178
  1011    A18d6 6358   3.919   2.400   3.382
  1011    A18d7 6359   4.022   2.483   3.323
  1011    A18d8 6360   4.121   2.534   3.404
  1011    A18d9 6361   4.202   2.600   3.381
  1011    A18da 6362   4.111   2.501   3.541
  1011    A18db 6363   4.174   2.537   3.677
  1011    A18dc 6364   4.197   2.642   3.674
  1011    A18dd 6365   4.038   2.485   3.739
  1011    A18de 6366   3.972   2.568   3.770
  1011    A18df 6367   4.082   2.391   3.857
  1011    A18e0 6368   4.011   2.317   3.897
  1011    A18e1 6369   4.154   2.494   3.957
  1011    A18e2 6370   4.081   2.580   3.969
  1011    A18e3 6371   4.290   2.521   3.885
  1011    A18e4 6372   4.324   2.629   3.874
  1011    A18e5 6373   4.288   2.448   3.741
  1011    A18e6 6374   4.382   2.434   3.697
  1011    A18e7 6375   4.206   2.320   3.785
  1011    A18e8 6376   4.262   2.254   3.856
  1011    A18e9 6377   4.166   2.258   3.699
  1011    A18ea 6378   4.004   2.446   3.600
  1011    A18eb 6379   3.904   2.381   3.522
  1011    A18ec 6380   3.822   2.325   3.568
  1011    A18ed 6381   4.008   2.492   3.178
  1011    A18ee 6382   3.908   2.399   3.139
  1011    A18ef 6383   3.872   2.379   3.007
  1011    A18f0 6384   3.788   2.319   3.001
  1011    A18f1 6385   3.951   2.442   2.916
  1011    A18f2 6386   3.952   2.471   2.761
  1011    A18f3 6387   3.998   2.386   2.698
  1011    A18f4 6388   4.041   2.596   2.804
  1011    A18f5 6389   4.146   2.602   2.771
  1011    A18f6 6390   3.972   2.727   2.746
  1011    A18f7 6391   4.035   2.809   2.710
  1011    A18f8 6392   3.834   2.751   2.819
  1011    A18f9 6393   3.845   2.771   2.927
  1011    A18fa 6394   3.699   2.814   2.767
  1011    A18fb 6395   3.635   2.695   2.751
  1011    A18fc 6396   3.499   2.686   2.747
  1011    A18fd 6397   3.425   2.557   2.750
  1011    A18fe 6398   3.375   2.525   2.660
  1011    A18ff 6399   3.477   2.475   2.796
  1011    A1900 6400   3.344   2.561   2.828
  1011    A1901 6401   3.440   2.814   2.739
  1011    A1902 6402   3.505   2.934   2.748
  1011    A1903 6403   3.642   2.940   2.768
  1011    A1904 6404   3.726   3.071   2.800
  1011    A1905 6405   3.821   3.043   2.852
  1011    A1906 6406   3.660   3.130   2.861
  1011    A1907 6407   3.739   3.128   2.709
  1011    A1908 6408   3.755   2.610   2.787
  1011    A1909 6409   3.715   2.558   2.871
  1011    A190a 6410   3.833   2.535   2.678
  1011    A190b 6411   3.786   2.460   2.614
  1011    A190c 6412   3.918   2.654   2.617
  1011    A190d 6413   4.007   2.621   2.552
  1011    A190e 6414   3.853   2.719   2.548
  1011    A190f 6415   4.037   2.543   2.946
  1011    A1910 6416   4.069   2.577   3.079
  1011    A1911 6417   4.140   2.651   3.111
  1011    A1912 6418   1.035   3.305   4.989
  1011    A1913 6419   0.962   3.384   4.995
  1011    A1914 6420   1.061   3.292   4.884
  1011    A1915 6421   0.978   3.214   5.015
  1011    A1916 6422   1.157   3.345   5.075
  1011    A1917 6423   1.188   3.494   5.050
  1011    A1918 6424   1.094   3.547   5.060
  1011    A1919 6425   1.222   3.503   4.946
  1011    A191a 6426   1.263   3.543   5.105
  1011    A191b 6427   1.277   3.253   5.039
  1011    A191c 6428   1.305   3.177   5.156
  1011    A191d 6429   1.423   3.092   5.149
  1011    A191e 6430   1.456   3.037   0.812
  1011    A191f 6431   1.496   3.088   5.027
  1011    A1920 6432   1.640   3.066   4.979
  1011    A1921 6433   1.659   2.960   4.947
  1011    A1922 6434   1.607   3.174   4.865
  1011    A1923 6435   1.600   3.138   4.763
  1011    A1924 6436   1.705   3.293   4.879
  1011    A1925 6437   1.678   3.386   4.831
  1011    A1926 6438   1.832   3.229   4.829
  1011    A1927 6439   1.826   3.186   4.726
  1011    A1928 6440   1.878   3.122   4.934
  1011    A1929 6441   1.880   3.018   4.899
  1011    A192a 6442   1.770   3.130   5.052
  1011    A192b 6443   1.791   3.105   5.158
  1011    A192c 6444   1.732   3.285   5.035
  1011    A192d 6445   1.642   3.327   5.090
  1011    A192e 6446   1.811   3.338   5.064
  1011    A192f 6447   1.469   3.177   4.930
  1011    A1930 6448   1.352   3.254   4.922
  1011    A1931 6449   1.334   3.332   4.846
  1011    A1932 6450   1.216   3.223   0.835
  1011    A1933 6451   1.133   3.327   0.792
  1011    A1934 6452   1.030   3.375   0.871
  1011    A1935 6453   0.948   3.431   0.837
  1011    A1936 6454   1.039   3.347   1.007
  1011    A1937 6455   0.963   3.363   1.138
  1011    A1938 6456   0.969   3.468   1.178
  1011    A1939 6457   1.064   3.265   1.200
  1011    A193a 6458   1.130   3.322   1.261
  1011    A193b 6459   0.997   3.158   1.282
  1011    A193c 6460   1.060   3.121   1.373
  1011    A193d 6461   0.925   3.064   1.182
  1011    A193e 6462   0.864   2.990   1.233
  1011    A193f 6463   0.975   3.024   1.045
  1011    A1940 6464   0.886   3.107   0.975
  1011    A1941 6465   0.841   3.078   0.847
  1011    A1942 6466   5.157   3.149   5.204
  1011    A1943 6467   5.187   3.243   5.156
  1011    A1944 6468   5.112   3.091   5.131
  1011    A1945 6469   5.091   3.159   0.863
  1011    A1946 6470   0.928   2.986   5.213
  1011    A1947 6471   1.014   2.902   0.854
  1011    A1948 6472   1.046   2.915   0.988
  1011    A1949 6473   1.134   2.823   1.053
  1011    A194a 6474   1.123   2.719   1.008
  1011    A194b 6475   1.106   2.820   1.159
  1011    A194c 6476   1.229   2.868   1.054
  1011    A194d 6477   0.821   3.154   1.101
  1011    A194e 6478   5.151   3.115   1.098
  1011    A194f 6479   0.822   3.289   1.178
  1011    A1950 6480   5.162   3.349   1.170
  1011    A1951 6481   0.867   3.241   1.327
  1011    A1952 6482   0.892   3.329   1.393
  1011    A1953 6483   0.788   3.190   1.378
  1011    A1954 6484   1.122   3.256   1.056
  1011    A1955 6485   1.210   3.183   0.970
  1011    A1956 6486   1.276   3.106   1.011
  1011    A1957 6487   3.189   4.978   4.470
  1011    A1958 6488   3.233   4.883   4.519
  1011    A1959 6489   3.263   5.054   4.509
  1011    A195a 6490   3.090   4.990   4.511
  1011    A195b 6491   3.198   4.973   4.309
  1011    A195c 6492   3.119   4.847   4.263
  1011    A195d 6493   3.156   4.820   4.161
  1011    A195e 6494   3.130   4.762   4.327
  1011    A195f 6495   3.016   4.869   4.251
  1011    A1960 6496   3.341   4.942   4.268
  1011    A1961 6497   3.379   5.045   4.175
  1011    A1962 6498   3.498   5.038   4.096
  1011    A1963 6499   3.508   5.105   4.008
  1011    A1964 6500   3.577   4.931   4.128
  1011    A1965 6501   3.685   4.854   4.067
  1011    A1966 6502   3.783   4.907   4.085
  1011    A1967 6503   3.643   4.735   4.163
  1011    A1968 6504   3.729   4.718   4.222
  1011    A1969 6505   3.593   4.609   4.081
  1011    A196a 6506   3.526   4.544   4.135
  1011    A196b 6507   3.737   4.560   4.042
  1011    A196c 6508   3.803   4.537   4.121
  1011    A196d 6509   3.789   4.666   3.936
  1011    A196e 6510   3.895   4.700   3.958
  1011    A196f 6511   3.680   4.788   3.923
  1011    A1970 6512   3.674   4.857   3.842
  1011    A1971 6513   3.544   4.691   3.954
  1011    A1972 6514   3.524   4.621   3.874
  1011    A1973 6515   3.445   4.741   3.978
  1011    A1974 6516   3.542   4.831   4.218
  1011    A1975 6517   3.421   4.832   4.286
  1011    A1976 6518   3.384   4.747   4.346
  1011    A1977 6519   3.264   5.129   4.152
  1011    A1978 6520   3.152   5.092   4.231
  1011    A1979 6521   3.026   5.142   4.226
  1011    A197a 6522   2.943   5.109   4.286
  1011    A197b 6523   3.015   0.815   4.130
  1011    A197c 6524   2.924   0.925   4.074
  1011    A197d 6525   2.847   0.879   4.010
  1011    A197e 6526   3.047   0.966   3.980
  1011    A197f 6527   3.038   0.939   3.875
  1011    A1980 6528   3.050   1.117   3.978
  1011    A1981 6529   3.086   1.171   3.884
  1011    A1982 6530   3.112   1.162   4.116
  1011    A1983 6531   3.142   1.264   4.109
  1011    A1984 6532   3.204   1.084   4.211
  1011    A1985 6533   3.106   1.055   4.295
  1011    A1986 6534   3.125   0.982   4.405
  1011    A1987 6535   3.009   0.932   4.488
  1011    A1988 6536   2.997   0.968   4.591
  1011    A1989 6537   3.026   0.824   4.492
  1011    A198a 6538   2.914   0.943   4.434
  1011    A198b 6539   3.256   0.932   4.429
  1011    A198c 6540   3.368   0.968   4.343
  1011    A198d 6541   3.341   1.048   4.227
  1011    A198e 6542   3.441   1.090   4.125
  1011    A198f 6543   3.403   1.071   4.030
  1011    A1990 6544   3.464   1.201   4.124
  1011    A1991 6545   3.540   1.037   4.133
  1011    A1992 6546   3.000   1.127   4.217
  1011    A1993 6547   2.960   1.214   4.268
  1011    A1994 6548   2.880   1.065   4.143
  1011    A1995 6549   2.787   1.055   4.200
  1011    A1996 6550   2.895   1.146   4.014
  1011    A1997 6551   2.868   1.246   4.027
  1011    A1998 6552   2.831   1.107   3.930
  1011    A1999 6553   3.119   0.860   4.054
  1011    A199a 6554   3.249   0.803   4.056
  1011    A199b 6555   3.326   0.831   3.983
  1011    A199c 6556   5.181   5.202   3.973
  1011    A199d 6557   5.194   5.186   3.864
  1011    A199e 6558   5.150   0.878   3.990
  1011    A199f 6559   5.102   5.137   4.009
  1011    A19a0 6560   0.891   5.179   4.042
  1011    A19a1 6561   0.898   0.800   4.190
  1011    A19a2 6562   0.995   5.204   4.241
  1011    A19a3 6563   0.905   0.909   4.201
  1011    A19a4 6564   0.810   0.792   4.251
  1011    A19a5 6565   1.004   0.824   3.969
  1011    A19a6 6566   1.099   5.160   3.925
  1011    A19a7 6567   1.217   5.199   3.852
  1011    A19a8 6568   1.296   5.133   3.842
  1011    A19a9 6569   1.223   0.906   3.818
  1011    A19aa 6570   1.313   1.016   3.769
  1011    A19ab 6571   1.336   0.998   3.661
  1011    A19ac 6572   1.198   1.117   3.804
  1011    A19ad 6573   1.133   1.153   3.727
  1011    A19ae 6574   1.257   1.228   3.897
  1011    A19af 6575   1.179   1.291   3.936
  1011    A19b0 6576   1.351   1.305   3.804
  1011    A19b1 6577   1.388   1.389   3.862
  1011    A19b2 6578   1.470   1.205   3.779
  1011    A19b3 6579   1.569   1.251   3.816
  1011    A19b4 6580   1.428   1.071   3.852
  1011    A19b5 6581   1.509   0.998   3.872
  1011    A19b6 6582   1.362   1.139   3.983
  1011    A19b7 6583   1.312   1.070   4.054
  1011    A19b8 6584   1.437   1.200   4.042
  1011    A19b9 6585   1.132   0.996   3.858
  1011    A19ba 6586   1.014   0.962   3.928
  1011    A19bb 6587   0.934   1.028   3.940
  1011    A19bc 6588   1.061   5.029   3.977
  1011    A19bd 6589   0.936   5.032   4.041
  1011    A19be 6590   0.885   4.925   4.116
  1011    A19bf 6591   0.786   4.921   4.162
  1011    A19c0 6592   0.959   4.808   4.099
  1011    A19c1 6593   0.952   4.666   4.144
  1011    A19c2 6594   0.960   4.656   4.250
  1011    A19c3 6595   1.090   4.648   4.070
  1011    A19c4 6596   1.184   4.630   4.128
  1011    A19c5 6597   1.078   4.528   3.981
  1011    A19c6 6598   1.178   4.486   3.954
  1011    A19c7 6599   0.979   4.563   3.866
  1011    A19c8 6600   0.988   4.482   3.789
  1011    A19c9 6601   0.942   4.689   3.798
  1011    A19ca 6602   0.827   4.711   3.865
  1011    A19cb 6603   5.156   4.804   3.832
  1011    A19cc 6604   5.017   4.801   3.904
  1011    A19cd 6605   4.995   4.711   3.955
  1011    A19ce 6606   5.007   4.861   3.998
  1011    A19cf 6607   4.938   4.810   3.837
  1011    A19d0 6608   5.191   4.884   3.722
  1011    A19d1 6609   0.883   4.880   3.666
  1011    A19d2 6610   0.976   4.769   3.685
  1011    A19d3 6611   1.087   4.747   3.584
  1011    A19d4 6612   1.179   4.718   3.633
  1011    A19d5 6613   1.057   4.672   3.509
  1011    A19d6 6614   1.106   4.838   3.527
  1011    A19d7 6615   0.834   4.577   3.934
  1011    A19d8 6616   5.194   4.503   3.892
  1011    A19d9 6617   0.860   4.551   4.090
  1011    A19da 6618   5.195   4.521   4.145
  1011    A19db 6619   0.979   4.452   4.082
  1011    A19dc 6620   0.957   4.353   4.041
  1011    A19dd 6621   1.023   4.427   4.175
  1011    A19de 6622   1.077   4.800   4.042
  1011    A19df 6623   1.135   4.907   3.967
  1011    A19e0 6624   1.237   4.890   3.927
  1011    A19e1 6625   3.821   1.521   4.984
  1011    A19e2 6626   3.918   1.564   5.005
  1011    A19e3 6627   3.784   1.570   4.889
  1011    A19e4 6628   3.763   1.541   5.078
  1011    A19e5 6629   3.851   1.375   4.972
  1011    A19e6 6630   3.910   1.319   5.101
  1011    A19e7 6631   3.860   1.348   5.190
  1011    A19e8 6632   3.906   1.211   5.094
  1011    A19e9 6633   4.018   1.347   5.115
  1011    A19ea 6634   3.951   1.337   4.860
  1011    A19eb 6635   3.884   1.254   4.769
  1011    A19ec 6636   3.951   1.202   4.654
  1011    A19ed 6637   3.908   1.130   4.587
  1011    A19ee 6638   4.083   1.252   4.640
  1011    A19ef 6639   4.217   1.213   4.572
  1011    A19f0 6640   4.219   1.256   4.468
  1011    A19f1 6641   4.289   1.307   4.683
  1011    A19f2 6642   4.328   1.406   4.642
  1011    A19f3 6643   4.390   1.213   4.759
  1011    A19f4 6644   4.420   1.244   4.858
  1011    A19f5 6645   4.500   1.181   4.656
  1011    A19f6 6646   4.573   1.110   4.704
  1011    A19f7 6647   4.431   1.098   4.540
  1011    A19f8 6648   4.482   1.004   4.522
  1011    A19f9 6649   4.279   1.071   4.586
  1011    A19fa 6650   4.216   0.991   4.553
  1011    A19fb 6651   4.313   1.077   4.746
  1011    A19fc 6652   4.217   1.077   4.796
  1011    A19fd 6653   4.365   0.986   4.785
  1011    A19fe 6654   4.146   1.334   4.735
  1011    A19ff 6655   4.085   1.383   4.845
  1011    A1a00 6656   4.142   1.442   4.919
  1011    A1a01 6657   3.751   1.218   4.816
  1011    A1a02 6658   3.727   1.291   4.937
  1011    A1a03 6659   3.610   1.286   5.006
  1011    A1a04 6660   3.592   1.355   5.084
  1011    A1a05 6661   3.519   1.194   4.953
  1011    A1a06 6662   3.370   1.162   4.955
  1011    A1a07 6663   3.339   1.094   5.044
  1011    A1a08 6664   3.399   1.072   4.833
  1011    A1a09 6665   3.402   0.962   4.859
  1011    A1a0a 6666   3.281   1.114   4.729
  1011    A1a0b 6667   3.255   1.050   4.649
  1011    A1a0c 6668   3.301   1.259   4.686
  1011    A1a0d 6669   3.219   1.279   4.620
  1011    A1a0e 6670   3.432   1.334   4.658
  1011    A1a0f 6671   3.429   1.403   4.780
  1011    A1a10 6672   3.486   1.534   4.795
  1011    A1a11 6673   3.462   1.628   4.912
  1011    A1a12 6674   3.474   1.588   5.012
  1011    A1a13 6675   3.541   1.704   4.900
  1011    A1a14 6676   3.368   1.683   4.905
  1011    A1a15 6677   3.560   1.574   4.682
  1011    A1a16 6678   3.572   1.498   4.564
  1011    A1a17 6679   3.496   1.383   4.539
  1011    A1a18 6680   3.462   1.335   4.397
  1011    A1a19 6681   3.426   1.421   4.337
  1011    A1a1a 6682   3.374   1.272   4.401
  1011    A1a1b 6683   3.538   1.281   4.346
  1011    A1a1c 6684   3.293   1.350   4.820
  1011    A1a1d 6685   3.227   1.430   4.814
  1011    A1a1e 6686   3.249   1.253   4.933
  1011    A1a1f 6687   3.204   1.291   5.026
  1011    A1a20 6688   3.171   1.146   4.841
  1011    A1a21 6689   3.128   1.054   4.888
  1011    A1a22 6690   3.083   1.191   4.798
  1011    A1a23 6691   3.537   1.129   4.838
  1011    A1a24 6692   3.653   1.140   4.755
  1011    A1a25 6693   3.658   1.109   4.656
  1011    A1a26 6694   4.662   4.346   0.915
  1011    A1a27 6695   4.582   4.337   0.847
  1011    A1a28 6696   4.739   4.298   0.862
  1011    A1a29 6697   4.641   4.299   1.012
  1011    A1a2a 6698   4.719   4.491   0.936
  1011    A1a2b 6699   4.630   4.566   1.038
  1011    A1a2c 6700   4.530   4.578   1.001
  1011    A1a2d 6701   4.625   4.531   1.142
  1011    A1a2e 6702   4.666   4.669   1.045
  1011    A1a2f 6703   4.725   4.565   0.813
  1011    A1a30 6704   4.859   4.587   5.204
  1011    A1a31 6705   4.891   4.634   5.069
  1011    A1a32 6706   4.985   4.629   5.012
  1011    A1a33 6707   4.786   4.670   4.988
  1011    A1a34 6708   4.751   4.690   4.837
  1011    A1a35 6709   4.801   4.605   4.788
  1011    A1a36 6710   4.606   4.674   4.888
  1011    A1a37 6711   4.555   4.577   4.859
  1011    A1a38 6712   4.530   4.803   4.847
  1011    A1a39 6713   4.435   4.840   4.892
  1011    A1a3a 6714   4.519   4.774   4.693
  1011    A1a3b 6715   4.462   4.682   4.684
  1011    A1a3c 6716   4.668   4.785   4.631
  1011    A1a3d 6717   4.708   4.689   4.585
  1011    A1a3e 6718   4.752   4.828   4.759
  1011    A1a3f 6719   4.851   4.867   4.748
  1011    A1a40 6720   4.642   4.903   4.845
  1011    A1a41 6721   4.608   5.002   4.801
  1011    A1a42 6722   4.662   4.919   4.949
  1011    A1a43 6723   4.655   4.652   5.028
  1011    A1a44 6724   4.614   4.590   5.150
  1011    A1a45 6725   4.512   4.571   5.173
  1011    A1a46 6726   4.942   4.528   0.881
  1011    A1a47 6727   4.861   4.478   0.986
  1011    A1a48 6728   4.907   4.435   1.112
  1011    A1a49 6729   4.846   4.399   1.192
  1011    A1a4a 6730   5.050   4.427   1.117
  1011    A1a4b 6731   5.150   4.349   1.190
  1011    A1a4c 6732   5.183   4.400   1.276
  1011    A1a4d 6733   0.814   4.372   1.067
  1011    A1a4e 6734   0.907   4.424   1.097
  1011    A1a4f 6735   0.865   4.232   1.032
  1011    A1a50 6736   0.963   4.226   0.983
  1011    A1a51 6737   5.162   4.158   0.974
  1011    A1a52 6738   5.113   4.211   0.892
  1011    A1a53 6739   5.175   4.009   0.971
  1011    A1a54 6740   5.088   3.990   1.076
  1011    A1a55 6741   5.035   3.869   1.121
  1011    A1a56 6742   4.939   3.857   1.236
  1011    A1a57 6743   4.985   3.891   1.331
  1011    A1a58 6744   4.905   3.752   1.223
  1011    A1a59 6745   4.847   3.920   1.228
  1011    A1a5a 6746   5.075   3.766   1.043
  1011    A1a5b 6747   5.158   3.782   0.934
  1011    A1a5c 6748   5.208   3.904   0.885
  1011    A1a5d 6749   0.848   3.913   5.179
  1011    A1a5e 6750   0.959   3.931   5.188
  1011    A1a5f 6751   0.829   3.826   5.118
  1011    A1a60 6752   0.813   4.000   5.122
  1011    A1a61 6753   5.079   4.140   1.105
  1011    A1a62 6754   4.981   4.185   1.110
  1011    A1a63 6755   5.141   4.205   1.227
  1011    A1a64 6756   5.115   4.169   1.325
  1011    A1a65 6757   0.866   4.174   1.181
  1011    A1a66 6758   0.900   4.072   1.182
  1011    A1a67 6759   0.934   4.228   1.248
  1011    A1a68 6760   5.127   4.450   1.013
  1011    A1a69 6761   5.089   4.510   0.894
  1011    A1a6a 6762   5.158   4.534   0.812
  1011    A1a6b 6763   1.642   5.078   5.115
  1011    A1a6c 6764   1.685   4.978   5.129
  1011    A1a6d 6765   1.653   5.094   5.008
  1011    A1a6e 6766   1.532   5.063   5.135
  1011    A1a6f 6767   1.707   5.179   5.206
  1011    A1a70 6768   1.850   0.785   5.154
  1011    A1a71 6769   1.863   0.856   5.074
  1011    A1a72 6770   1.901   5.125   5.126
  1011    A1a73 6771   1.917   0.825   0.797
  1011    A1a74 6772   1.703   5.109   0.914
  1011    A1a75 6773   1.607   5.181   0.992
  1011    A1a76 6774   1.573   5.145   1.123
  1011    A1a77 6775   1.505   5.209   1.183
  1011    A1a78 6776   1.643   5.029   1.172
  1011    A1a79 6777   1.676   4.957   1.298
  1011    A1a7a 6778   1.602   4.891   1.324
  1011    A1a7b 6779   1.789   4.888   1.215
  1011    A1a7c 6780   1.769   4.769   1.202
  1011    A1a7d 6781   1.928   4.910   1.293
  1011    A1a7e 6782   2.017   4.908   1.237
  1011    A1a7f 6783   1.917   4.825   1.422
  1011    A1a80 6784   1.906   4.720   1.387
  1011    A1a81 6785   1.794   4.902   1.506
  1011    A1a82 6786   1.712   4.837   1.533
  1011    A1a83 6787   1.747   5.022   1.420
  1011    A1a84 6788   1.690   5.095   1.471
  1011    A1a85 6789   1.891   5.052   1.352
  1011    A1a86 6790   1.954   5.089   1.432
  1011    A1a87 6791   1.883   5.121   1.267
  1011    A1a88 6792   1.736   4.964   1.101
  1011    A1a89 6793   1.776   4.995   0.964
  1011    A1a8a 6794   1.870   4.962   0.913
  1011    A1a8b 6795   1.569   0.870   0.925
  1011    A1a8c 6796   1.621   0.875   0.793
  1011    A1a8d 6797   1.608   0.987   5.131
  1011    A1a8e 6798   1.640   0.999   5.025
  1011    A1a8f 6799   1.525   1.085   5.193
  1011    A1a90 6800   1.484   1.239   5.181
  1011    A1a91 6801   1.576   1.290   5.173
  1011    A1a92 6802   1.449   1.232   0.901
  1011    A1a93 6803   1.525   1.283   0.955
  1011    A1a94 6804   1.306   1.301   0.924
  1011    A1a95 6805   1.289   1.338   1.025
  1011    A1a96 6806   1.190   1.218   0.846
  1011    A1a97 6807   1.093   1.263   0.857
  1011    A1a98 6808   1.179   1.064   0.821
  1011    A1a99 6809   1.226   1.074   5.126
  1011    A1a9a 6810   1.188   0.980   5.022
  1011    A1a9b 6811   1.207   1.002   4.870
  1011    A1a9c 6812   1.303   0.950   4.835
  1011    A1a9d 6813   1.128   0.962   4.815
  1011    A1a9e 6814   1.212   1.110   4.842
  1011    A1a9f 6815   1.118   0.868   5.081
  1011    A1aa0 6816   1.084   0.853   5.215
  1011    A1aa1 6817   1.109   0.959   0.877
  1011    A1aa2 6818   1.053   0.955   1.020
  1011    A1aa3 6819   0.979   1.030   1.039
  1011    A1aa4 6820   1.137   0.959   1.099
  1011    A1aa5 6821   1.001   0.865   1.029
  1011    A1aa6 6822   1.236   1.225   5.129
  1011    A1aa7 6823   1.152   1.275   5.071
  1011    A1aa8 6824   1.368   1.318   5.112
  1011    A1aa9 6825   1.383   1.362   5.020
  1011    A1aaa 6826   1.346   1.413   0.809
  1011    A1aab 6827   1.438   1.466   0.836
  1011    A1aac 6828   1.261   1.484   0.792
  1011    A1aad 6829   1.481   1.083   0.892
  1011    A1aae 6830   1.501   0.976   0.979
  1011    A1aaf 6831   1.476   0.976   1.088
  1011    A1ab0 6832   3.094   4.745   5.137
  1011    A1ab1 6833   3.098   4.843   5.188
  1011    A1ab2 6834   3.164   4.670   5.185
  1011    A1ab3 6835   2.998   4.691   5.157
  1011    A1ab4 6836   3.121   4.754   4.984
  1011    A1ab5 6837   3.124   4.616   4.925
  1011    A1ab6 6838   3.023   4.571   4.929
  1011    A1ab7 6839   3.204   4.552   4.966
  1011    A1ab8 6840   3.130   4.621   4.814
  1011    A1ab9 6841   3.249   4.837   4.962
  1011    A1aba 6842   3.217   4.959   4.901
  1011    A1abb 6843   3.318   5.037   4.834
  1011    A1abc 6844   3.299   5.122   4.768
  1011    A1abd 6845   3.445   4.979   4.837
  1011    A1abe 6846   3.576   4.999   4.774
  1011    A1abf 6847   3.627   5.082   4.828
  1011    A1ac0 6848   3.614   4.862   4.848
  1011    A1ac1 6849   3.686   4.866   4.926
  1011    A1ac2 6850   3.671   4.768   4.737
  1011    A1ac3 6851   3.669   4.660   4.745
  1011    A1ac4 6852   3.806   4.832   4.697
  1011    A1ac5 6853   3.861   4.762   4.630
  1011    A1ac6 6854   3.767   4.974   4.616
  1011    A1ac7 6855   3.806   4.966   4.515
  1011    A1ac8 6856   3.610   4.979   4.622
  1011    A1ac9 6857   3.552   5.036   4.542
  1011    A1aca 6858   3.576   4.822   4.611
  1011    A1acb 6859   3.610   4.785   4.512
  1011    A1acc 6860   3.466   4.792   4.620
  1011    A1acd 6861   3.476   4.874   4.909
  1011    A1ace 6862   3.380   4.783   4.958
  1011    A1acf 6863   3.404   4.680   4.988
  1011    A1ad0 6864   3.078   4.965   4.878
  1011    A1ad1 6865   3.021   4.841   4.910
  1011    A1ad2 6866   2.890   4.818   4.873
  1011    A1ad3 6867   2.837   4.720   4.898
  1011    A1ad4 6868   2.818   4.914   4.805
  1011    A1ad5 6869   2.734   4.904   4.680
  1011    A1ad6 6870   2.777   4.837   4.609
  1011    A1ad7 6871   2.783   5.053   4.657
  1011    A1ad8 6872   2.853   5.056   4.571
  1011    A1ad9 6873   2.659   5.139   4.634
  1011    A1ada 6874   2.676   0.803   4.583
  1011    A1adb 6875   2.581   5.129   4.770
  1011    A1adc 6876   2.496   5.201   4.759
  1011    A1add 6877   2.613   5.112   4.915
  1011    A1ade 6878   2.575   4.978   4.918
  1011    A1adf 6879   2.534   4.905   5.032
  1011    A1ae0 6880   2.452   4.782   5.010
  1011    A1ae1 6881   2.507   4.711   4.950
  1011    A1ae2 6882   2.354   4.794   4.967
  1011    A1ae3 6883   2.436   4.728   5.107
  1011    A1ae4 6884   2.525   4.982   5.145
  1011    A1ae5 6885   2.543   5.116   5.146
  1011    A1ae6 6886   2.577   5.191   5.028
  1011    A1ae7 6887   2.552   0.911   5.033
  1011    A1ae8 6888   2.596   0.964   4.940
  1011    A1ae9 6889   2.438   0.921   5.025
  1011    A1aea 6890   2.599   0.952   5.132
  1011    A1aeb 6891   2.524   4.980   4.776
  1011    A1aec 6892   2.414   4.981   4.767
  1011    A1aed 6893   2.578   4.907   4.651
  1011    A1aee 6894   2.532   4.809   4.629
  1011    A1aef 6895   2.567   5.029   4.555
  1011    A1af0 6896   2.465   5.062   4.541
  1011    A1af1 6897   2.614   5.010   4.456
  1011    A1af2 6898   2.872   5.040   4.776
  1011    A1af3 6899   3.005   5.063   4.804
  1011    A1af4 6900   3.054   5.143   4.749
   4.43022   4.43022   4.43022
