[ defaults ]
; nbfunc        comb-rule       gen-pairs       fudgeLJ fudgeQQ
     1 2      yes    0.500000 0.833300

[ atomtypes ]
;type, bondingtype, atomic_number, mass, charge, ptype, sigma, epsilon
lmp_001     lmp_001     -1        12.01000000         0.00000000 A        3.39770953e-01     4.51035200e-01
lmp_002     lmp_002     -1        12.01000000         0.00000000 A        3.31521231e-01     4.13379200e-01
lmp_003     lmp_003     -1        12.01000000         0.00000000 A        3.39770953e-01     4.51035200e-01
lmp_004     lmp_004     -1        12.01000000         0.00000000 A        3.39770953e-01     4.51035200e-01
lmp_005     lmp_005     -1        12.01000000         0.00000000 A        3.31521231e-01     4.13379200e-01
lmp_006     lmp_006     -1        12.01000000         0.00000000 A        3.31521231e-01     4.13379200e-01
lmp_007     lmp_007     -1        12.01000000         0.00000000 A        3.39770953e-01     4.51035200e-01
lmp_008     lmp_008     -1         1.00800000         0.00000000 A        2.62547852e-01     6.73624000e-02
lmp_009     lmp_009     -1         1.00800000         0.00000000 A        2.60017700e-01     8.70272000e-02

[ moleculetype ]
lmp_system          3

[ atoms ]
;num, type, resnum, resname, atomname, cgnr, q, m
     1 lmp_003                 1 R01      A1            0        -0.10048000        12.01000000
     2 lmp_009                 1 R01      A2            0         0.02361000         1.00800000
     3 lmp_009                 1 R01      A3            0         0.02361000         1.00800000
     4 lmp_009                 1 R01      A4            0         0.02361000         1.00800000
     5 lmp_004                 1 R01      A5            0         0.19001000        12.01000000
     6 lmp_003                 1 R01      A6            0        -0.17889000        12.01000000
     7 lmp_009                 1 R01      A7            0         0.04121000         1.00800000
     8 lmp_009                 1 R01      A8            0         0.04121000         1.00800000
     9 lmp_009                 1 R01      A9            0         0.04121000         1.00800000
    10 lmp_005                 1 R01      Aa            0         0.00401000        12.01000000
    11 lmp_006                 1 R01      Ab            0         0.00111000        12.01000000
    12 lmp_005                 1 R01      Ac            0        -0.18989000        12.01000000
    13 lmp_008                 1 R01      Ad            0         0.14431000         1.00800000
    14 lmp_005                 1 R01      Ae            0        -0.04879000        12.01000000
    15 lmp_007                 1 R01      Af            0         0.03141000        12.01000000
    16 lmp_009                 1 R01      A10           0         0.03521000         1.00800000
    17 lmp_007                 1 R01      A11           0         0.01591000        12.01000000
    18 lmp_009                 1 R01      A12           0         0.03721000         1.00800000
    19 lmp_004                 1 R01      A13           0         0.02141000        12.01000000
    20 lmp_009                 1 R01      A14           0         0.01911000         1.00800000
    21 lmp_007                 1 R01      A15           0         0.02241000        12.01000000
    22 lmp_009                 1 R01      A16           0         0.03781000         1.00800000
    23 lmp_007                 1 R01      A17           0         0.01411000        12.01000000
    24 lmp_009                 1 R01      A18           0         0.03861000         1.00800000
    25 lmp_004                 1 R01      A19           0         0.01111000        12.01000000
    26 lmp_009                 1 R01      A1a           0         0.02341000         1.00800000
    27 lmp_004                 1 R01      A1b           0        -0.10289000        12.01000000
    28 lmp_009                 1 R01      A1c           0         0.04701000         1.00800000
    29 lmp_009                 1 R01      A1d           0         0.04701000         1.00800000
    30 lmp_005                 1 R01      A1e           0        -0.03099000        12.01000000
    31 lmp_005                 1 R01      A1f           0        -0.25069000        12.01000000
    32 lmp_008                 1 R01      A20           0         0.17281000         1.00800000
    33 lmp_006                 1 R01      A21           0         0.02131000        12.01000000
    34 lmp_005                 1 R01      A22           0         0.02031000        12.01000000
    35 lmp_005                 1 R01      A23           0        -0.24969000        12.01000000
    36 lmp_008                 1 R01      A24           0         0.17861000         1.00800000
    37 lmp_005                 1 R01      A25           0        -0.03239000        12.01000000
    38 lmp_007                 1 R01      A26           0         0.03221000        12.01000000
    39 lmp_009                 1 R01      A27           0         0.02561000         1.00800000
    40 lmp_007                 1 R01      A28           0         0.02991000        12.01000000
    41 lmp_009                 1 R01      A29           0         0.02761000         1.00800000
    42 lmp_004                 1 R01      A2a           0         0.05471000        12.01000000
    43 lmp_009                 1 R01      A2b           0         0.00921000         1.00800000
    44 lmp_007                 1 R01      A2c           0         0.00911000        12.01000000
    45 lmp_009                 1 R01      A2d           0         0.03851000         1.00800000
    46 lmp_005                 1 R01      A2e           0        -0.12349000        12.01000000
    47 lmp_005                 1 R01      A2f           0        -0.12549000        12.01000000
    48 lmp_005                 1 R01      A30           0         0.03581000        12.01000000
    49 lmp_003                 1 R01      A31           0        -0.11109000        12.01000000
    50 lmp_009                 1 R01      A32           0         0.04331000         1.00800000
    51 lmp_009                 1 R01      A33           0         0.04331000         1.00800000
    52 lmp_009                 1 R01      A34           0         0.04331000         1.00800000
    53 lmp_005                 1 R01      A35           0        -0.08649000        12.01000000
    54 lmp_005                 1 R01      A36           0        -0.09149000        12.01000000
    55 lmp_005                 1 R01      A37           0         0.05181000        12.01000000
    56 lmp_003                 1 R01      A38           0        -0.10009000        12.01000000
    57 lmp_009                 1 R01      A39           0         0.04551000         1.00800000
    58 lmp_009                 1 R01      A3a           0         0.04551000         1.00800000
    59 lmp_009                 1 R01      A3b           0         0.04551000         1.00800000
    60 lmp_007                 1 R01      A3c           0         0.00531000        12.01000000
    61 lmp_009                 1 R01      A3d           0         0.03971000         1.00800000
    62 lmp_004                 1 R01      A3e           0         0.05571000        12.01000000
    63 lmp_009                 1 R01      A3f           0         0.01041000         1.00800000
    64 lmp_004                 1 R01      A40           0        -0.21059000        12.01000000
    65 lmp_009                 1 R01      A41           0         0.05311000         1.00800000
    66 lmp_009                 1 R01      A42           0         0.05311000         1.00800000
    67 lmp_005                 1 R01      A43           0        -0.04569000        12.01000000
    68 lmp_005                 1 R01      A44           0        -0.20379000        12.01000000
    69 lmp_008                 1 R01      A45           0         0.15591000         1.00800000
    70 lmp_003                 1 R01      A46           0        -0.10048000        12.01000000
    71 lmp_009                 1 R01      A47           0         0.02361000         1.00800000
    72 lmp_009                 1 R01      A48           0         0.02361000         1.00800000
    73 lmp_009                 1 R01      A49           0         0.02361000         1.00800000
    74 lmp_004                 1 R01      A4a           0         0.19001000        12.01000000
    75 lmp_003                 1 R01      A4b           0        -0.17889000        12.01000000
    76 lmp_009                 1 R01      A4c           0         0.04121000         1.00800000
    77 lmp_009                 1 R01      A4d           0         0.04121000         1.00800000
    78 lmp_009                 1 R01      A4e           0         0.04121000         1.00800000
    79 lmp_005                 1 R01      A4f           0         0.00401000        12.01000000
    80 lmp_006                 1 R01      A50           0         0.00111000        12.01000000
    81 lmp_005                 1 R01      A51           0        -0.18989000        12.01000000
    82 lmp_008                 1 R01      A52           0         0.14431000         1.00800000
    83 lmp_005                 1 R01      A53           0        -0.04879000        12.01000000
    84 lmp_007                 1 R01      A54           0         0.03141000        12.01000000
    85 lmp_009                 1 R01      A55           0         0.03521000         1.00800000
    86 lmp_007                 1 R01      A56           0         0.01591000        12.01000000
    87 lmp_009                 1 R01      A57           0         0.03721000         1.00800000
    88 lmp_004                 1 R01      A58           0         0.02141000        12.01000000
    89 lmp_009                 1 R01      A59           0         0.01911000         1.00800000
    90 lmp_007                 1 R01      A5a           0         0.02241000        12.01000000
    91 lmp_009                 1 R01      A5b           0         0.03781000         1.00800000
    92 lmp_007                 1 R01      A5c           0         0.01411000        12.01000000
    93 lmp_009                 1 R01      A5d           0         0.03861000         1.00800000
    94 lmp_004                 1 R01      A5e           0         0.01111000        12.01000000
    95 lmp_009                 1 R01      A5f           0         0.02341000         1.00800000
    96 lmp_004                 1 R01      A60           0        -0.10289000        12.01000000
    97 lmp_009                 1 R01      A61           0         0.04701000         1.00800000
    98 lmp_009                 1 R01      A62           0         0.04701000         1.00800000
    99 lmp_005                 1 R01      A63           0        -0.03099000        12.01000000
   100 lmp_005                 1 R01      A64           0        -0.25069000        12.01000000
   101 lmp_008                 1 R01      A65           0         0.17281000         1.00800000
   102 lmp_006                 1 R01      A66           0         0.02131000        12.01000000
   103 lmp_005                 1 R01      A67           0         0.02031000        12.01000000
   104 lmp_005                 1 R01      A68           0        -0.24969000        12.01000000
   105 lmp_008                 1 R01      A69           0         0.17861000         1.00800000
   106 lmp_005                 1 R01      A6a           0        -0.03239000        12.01000000
   107 lmp_007                 1 R01      A6b           0         0.03221000        12.01000000
   108 lmp_009                 1 R01      A6c           0         0.02561000         1.00800000
   109 lmp_007                 1 R01      A6d           0         0.02991000        12.01000000
   110 lmp_009                 1 R01      A6e           0         0.02761000         1.00800000
   111 lmp_004                 1 R01      A6f           0         0.05471000        12.01000000
   112 lmp_009                 1 R01      A70           0         0.00921000         1.00800000
   113 lmp_007                 1 R01      A71           0         0.00911000        12.01000000
   114 lmp_009                 1 R01      A72           0         0.03851000         1.00800000
   115 lmp_005                 1 R01      A73           0        -0.12349000        12.01000000
   116 lmp_005                 1 R01      A74           0        -0.12549000        12.01000000
   117 lmp_005                 1 R01      A75           0         0.03581000        12.01000000
   118 lmp_003                 1 R01      A76           0        -0.11109000        12.01000000
   119 lmp_009                 1 R01      A77           0         0.04331000         1.00800000
   120 lmp_009                 1 R01      A78           0         0.04331000         1.00800000
   121 lmp_009                 1 R01      A79           0         0.04331000         1.00800000
   122 lmp_002                 1 R01      A7a           0        -0.08649000        12.01000000
   123 lmp_002                 1 R01      A7b           0        -0.09149000        12.01000000
   124 lmp_005                 1 R01      A7c           0         0.05181000        12.01000000
   125 lmp_003                 1 R01      A7d           0        -0.10009000        12.01000000
   126 lmp_009                 1 R01      A7e           0         0.04551000         1.00800000
   127 lmp_009                 1 R01      A7f           0         0.04551000         1.00800000
   128 lmp_009                 1 R01      A80           0         0.04551000         1.00800000
   129 lmp_007                 1 R01      A81           0         0.00531000        12.01000000
   130 lmp_009                 1 R01      A82           0         0.03971000         1.00800000
   131 lmp_004                 1 R01      A83           0         0.05571000        12.01000000
   132 lmp_009                 1 R01      A84           0         0.01041000         1.00800000
   133 lmp_004                 1 R01      A85           0        -0.21059000        12.01000000
   134 lmp_009                 1 R01      A86           0         0.05311000         1.00800000
   135 lmp_009                 1 R01      A87           0         0.05311000         1.00800000
   136 lmp_005                 1 R01      A88           0        -0.04569000        12.01000000
   137 lmp_005                 1 R01      A89           0        -0.20379000        12.01000000
   138 lmp_008                 1 R01      A8a           0         0.15591000         1.00800000
   139 lmp_003                 1 R01      A8b           0        -0.10048000        12.01000000
   140 lmp_009                 1 R01      A8c           0         0.02361000         1.00800000
   141 lmp_009                 1 R01      A8d           0         0.02361000         1.00800000
   142 lmp_009                 1 R01      A8e           0         0.02361000         1.00800000
   143 lmp_004                 1 R01      A8f           0         0.19001000        12.01000000
   144 lmp_003                 1 R01      A90           0        -0.17889000        12.01000000
   145 lmp_009                 1 R01      A91           0         0.04121000         1.00800000
   146 lmp_009                 1 R01      A92           0         0.04121000         1.00800000
   147 lmp_009                 1 R01      A93           0         0.04121000         1.00800000
   148 lmp_005                 1 R01      A94           0         0.00401000        12.01000000
   149 lmp_006                 1 R01      A95           0         0.00111000        12.01000000
   150 lmp_005                 1 R01      A96           0        -0.18989000        12.01000000
   151 lmp_008                 1 R01      A97           0         0.14431000         1.00800000
   152 lmp_005                 1 R01      A98           0        -0.04879000        12.01000000
   153 lmp_007                 1 R01      A99           0         0.03141000        12.01000000
   154 lmp_009                 1 R01      A9a           0         0.03521000         1.00800000
   155 lmp_007                 1 R01      A9b           0         0.01591000        12.01000000
   156 lmp_009                 1 R01      A9c           0         0.03721000         1.00800000
   157 lmp_004                 1 R01      A9d           0         0.02141000        12.01000000
   158 lmp_009                 1 R01      A9e           0         0.01911000         1.00800000
   159 lmp_007                 1 R01      A9f           0         0.02241000        12.01000000
   160 lmp_009                 1 R01      Aa0           0         0.03781000         1.00800000
   161 lmp_007                 1 R01      Aa1           0         0.01411000        12.01000000
   162 lmp_009                 1 R01      Aa2           0         0.03861000         1.00800000
   163 lmp_004                 1 R01      Aa3           0         0.01111000        12.01000000
   164 lmp_009                 1 R01      Aa4           0         0.02341000         1.00800000
   165 lmp_004                 1 R01      Aa5           0        -0.10289000        12.01000000
   166 lmp_009                 1 R01      Aa6           0         0.04701000         1.00800000
   167 lmp_009                 1 R01      Aa7           0         0.04701000         1.00800000
   168 lmp_005                 1 R01      Aa8           0        -0.03099000        12.01000000
   169 lmp_005                 1 R01      Aa9           0        -0.25069000        12.01000000
   170 lmp_008                 1 R01      Aaa           0         0.17281000         1.00800000
   171 lmp_006                 1 R01      Aab           0         0.02131000        12.01000000
   172 lmp_005                 1 R01      Aac           0         0.02031000        12.01000000
   173 lmp_005                 1 R01      Aad           0        -0.24969000        12.01000000
   174 lmp_008                 1 R01      Aae           0         0.17861000         1.00800000
   175 lmp_005                 1 R01      Aaf           0        -0.03239000        12.01000000
   176 lmp_007                 1 R01      Ab0           0         0.03221000        12.01000000
   177 lmp_009                 1 R01      Ab1           0         0.02561000         1.00800000
   178 lmp_007                 1 R01      Ab2           0         0.02991000        12.01000000
   179 lmp_009                 1 R01      Ab3           0         0.02761000         1.00800000
   180 lmp_004                 1 R01      Ab4           0         0.05471000        12.01000000
   181 lmp_009                 1 R01      Ab5           0         0.00921000         1.00800000
   182 lmp_007                 1 R01      Ab6           0         0.00911000        12.01000000
   183 lmp_009                 1 R01      Ab7           0         0.03851000         1.00800000
   184 lmp_005                 1 R01      Ab8           0        -0.12349000        12.01000000
   185 lmp_005                 1 R01      Ab9           0        -0.12549000        12.01000000
   186 lmp_005                 1 R01      Aba           0         0.03581000        12.01000000
   187 lmp_003                 1 R01      Abb           0        -0.11109000        12.01000000
   188 lmp_009                 1 R01      Abc           0         0.04331000         1.00800000
   189 lmp_009                 1 R01      Abd           0         0.04331000         1.00800000
   190 lmp_009                 1 R01      Abe           0         0.04331000         1.00800000
   191 lmp_005                 1 R01      Abf           0        -0.08649000        12.01000000
   192 lmp_005                 1 R01      Ac0           0        -0.09149000        12.01000000
   193 lmp_005                 1 R01      Ac1           0         0.05181000        12.01000000
   194 lmp_003                 1 R01      Ac2           0        -0.10009000        12.01000000
   195 lmp_009                 1 R01      Ac3           0         0.04551000         1.00800000
   196 lmp_009                 1 R01      Ac4           0         0.04551000         1.00800000
   197 lmp_009                 1 R01      Ac5           0         0.04551000         1.00800000
   198 lmp_007                 1 R01      Ac6           0         0.00531000        12.01000000
   199 lmp_009                 1 R01      Ac7           0         0.03971000         1.00800000
   200 lmp_004                 1 R01      Ac8           0         0.05571000        12.01000000
   201 lmp_009                 1 R01      Ac9           0         0.01041000         1.00800000
   202 lmp_004                 1 R01      Aca           0        -0.21059000        12.01000000
   203 lmp_009                 1 R01      Acb           0         0.05311000         1.00800000
   204 lmp_009                 1 R01      Acc           0         0.05311000         1.00800000
   205 lmp_005                 1 R01      Acd           0        -0.04569000        12.01000000
   206 lmp_005                 1 R01      Ace           0        -0.20379000        12.01000000
   207 lmp_008                 1 R01      Acf           0         0.15591000         1.00800000
   208 lmp_003                 1 R01      Ad0           0        -0.10048000        12.01000000
   209 lmp_009                 1 R01      Ad1           0         0.02361000         1.00800000
   210 lmp_009                 1 R01      Ad2           0         0.02361000         1.00800000
   211 lmp_009                 1 R01      Ad3           0         0.02361000         1.00800000
   212 lmp_004                 1 R01      Ad4           0         0.19001000        12.01000000
   213 lmp_003                 1 R01      Ad5           0        -0.17889000        12.01000000
   214 lmp_009                 1 R01      Ad6           0         0.04121000         1.00800000
   215 lmp_009                 1 R01      Ad7           0         0.04121000         1.00800000
   216 lmp_009                 1 R01      Ad8           0         0.04121000         1.00800000
   217 lmp_005                 1 R01      Ad9           0         0.00401000        12.01000000
   218 lmp_006                 1 R01      Ada           0         0.00111000        12.01000000
   219 lmp_005                 1 R01      Adb           0        -0.18989000        12.01000000
   220 lmp_008                 1 R01      Adc           0         0.14431000         1.00800000
   221 lmp_005                 1 R01      Add           0        -0.04879000        12.01000000
   222 lmp_007                 1 R01      Ade           0         0.03141000        12.01000000
   223 lmp_009                 1 R01      Adf           0         0.03521000         1.00800000
   224 lmp_007                 1 R01      Ae0           0         0.01591000        12.01000000
   225 lmp_009                 1 R01      Ae1           0         0.03721000         1.00800000
   226 lmp_004                 1 R01      Ae2           0         0.02141000        12.01000000
   227 lmp_009                 1 R01      Ae3           0         0.01911000         1.00800000
   228 lmp_007                 1 R01      Ae4           0         0.02241000        12.01000000
   229 lmp_009                 1 R01      Ae5           0         0.03781000         1.00800000
   230 lmp_007                 1 R01      Ae6           0         0.01411000        12.01000000
   231 lmp_009                 1 R01      Ae7           0         0.03861000         1.00800000
   232 lmp_004                 1 R01      Ae8           0         0.01111000        12.01000000
   233 lmp_009                 1 R01      Ae9           0         0.02341000         1.00800000
   234 lmp_004                 1 R01      Aea           0        -0.10289000        12.01000000
   235 lmp_009                 1 R01      Aeb           0         0.04701000         1.00800000
   236 lmp_009                 1 R01      Aec           0         0.04701000         1.00800000
   237 lmp_005                 1 R01      Aed           0        -0.03099000        12.01000000
   238 lmp_005                 1 R01      Aee           0        -0.25069000        12.01000000
   239 lmp_008                 1 R01      Aef           0         0.17281000         1.00800000
   240 lmp_006                 1 R01      Af0           0         0.02131000        12.01000000
   241 lmp_005                 1 R01      Af1           0         0.02031000        12.01000000
   242 lmp_005                 1 R01      Af2           0        -0.24969000        12.01000000
   243 lmp_008                 1 R01      Af3           0         0.17861000         1.00800000
   244 lmp_005                 1 R01      Af4           0        -0.03239000        12.01000000
   245 lmp_007                 1 R01      Af5           0         0.03221000        12.01000000
   246 lmp_009                 1 R01      Af6           0         0.02561000         1.00800000
   247 lmp_007                 1 R01      Af7           0         0.02991000        12.01000000
   248 lmp_009                 1 R01      Af8           0         0.02761000         1.00800000
   249 lmp_004                 1 R01      Af9           0         0.05471000        12.01000000
   250 lmp_009                 1 R01      Afa           0         0.00921000         1.00800000
   251 lmp_007                 1 R01      Afb           0         0.00911000        12.01000000
   252 lmp_009                 1 R01      Afc           0         0.03851000         1.00800000
   253 lmp_005                 1 R01      Afd           0        -0.12349000        12.01000000
   254 lmp_005                 1 R01      Afe           0        -0.12549000        12.01000000
   255 lmp_005                 1 R01      Aff           0         0.03581000        12.01000000
   256 lmp_003                 1 R01      A100          0        -0.11109000        12.01000000
   257 lmp_009                 1 R01      A101          0         0.04331000         1.00800000
   258 lmp_009                 1 R01      A102          0         0.04331000         1.00800000
   259 lmp_009                 1 R01      A103          0         0.04331000         1.00800000
   260 lmp_005                 1 R01      A104          0        -0.08649000        12.01000000
   261 lmp_005                 1 R01      A105          0        -0.09149000        12.01000000
   262 lmp_005                 1 R01      A106          0         0.05181000        12.01000000
   263 lmp_003                 1 R01      A107          0        -0.10009000        12.01000000
   264 lmp_009                 1 R01      A108          0         0.04551000         1.00800000
   265 lmp_009                 1 R01      A109          0         0.04551000         1.00800000
   266 lmp_009                 1 R01      A10a          0         0.04551000         1.00800000
   267 lmp_007                 1 R01      A10b          0         0.00531000        12.01000000
   268 lmp_009                 1 R01      A10c          0         0.03971000         1.00800000
   269 lmp_004                 1 R01      A10d          0         0.05571000        12.01000000
   270 lmp_009                 1 R01      A10e          0         0.01041000         1.00800000
   271 lmp_004                 1 R01      A10f          0        -0.21059000        12.01000000
   272 lmp_009                 1 R01      A110          0         0.05311000         1.00800000
   273 lmp_009                 1 R01      A111          0         0.05311000         1.00800000
   274 lmp_005                 1 R01      A112          0        -0.04569000        12.01000000
   275 lmp_005                 1 R01      A113          0        -0.20379000        12.01000000
   276 lmp_008                 1 R01      A114          0         0.15591000         1.00800000
   277 lmp_003                 1 R01      A115          0        -0.10048000        12.01000000
   278 lmp_009                 1 R01      A116          0         0.02361000         1.00800000
   279 lmp_009                 1 R01      A117          0         0.02361000         1.00800000
   280 lmp_009                 1 R01      A118          0         0.02361000         1.00800000
   281 lmp_004                 1 R01      A119          0         0.19001000        12.01000000
   282 lmp_003                 1 R01      A11a          0        -0.17889000        12.01000000
   283 lmp_009                 1 R01      A11b          0         0.04121000         1.00800000
   284 lmp_009                 1 R01      A11c          0         0.04121000         1.00800000
   285 lmp_009                 1 R01      A11d          0         0.04121000         1.00800000
   286 lmp_005                 1 R01      A11e          0         0.00401000        12.01000000
   287 lmp_006                 1 R01      A11f          0         0.00111000        12.01000000
   288 lmp_005                 1 R01      A120          0        -0.18989000        12.01000000
   289 lmp_008                 1 R01      A121          0         0.14431000         1.00800000
   290 lmp_005                 1 R01      A122          0        -0.04879000        12.01000000
   291 lmp_007                 1 R01      A123          0         0.03141000        12.01000000
   292 lmp_009                 1 R01      A124          0         0.03521000         1.00800000
   293 lmp_007                 1 R01      A125          0         0.01591000        12.01000000
   294 lmp_009                 1 R01      A126          0         0.03721000         1.00800000
   295 lmp_004                 1 R01      A127          0         0.02141000        12.01000000
   296 lmp_009                 1 R01      A128          0         0.01911000         1.00800000
   297 lmp_007                 1 R01      A129          0         0.02241000        12.01000000
   298 lmp_009                 1 R01      A12a          0         0.03781000         1.00800000
   299 lmp_007                 1 R01      A12b          0         0.01411000        12.01000000
   300 lmp_009                 1 R01      A12c          0         0.03861000         1.00800000
   301 lmp_004                 1 R01      A12d          0         0.01111000        12.01000000
   302 lmp_009                 1 R01      A12e          0         0.02341000         1.00800000
   303 lmp_004                 1 R01      A12f          0        -0.10289000        12.01000000
   304 lmp_009                 1 R01      A130          0         0.04701000         1.00800000
   305 lmp_009                 1 R01      A131          0         0.04701000         1.00800000
   306 lmp_005                 1 R01      A132          0        -0.03099000        12.01000000
   307 lmp_005                 1 R01      A133          0        -0.25069000        12.01000000
   308 lmp_008                 1 R01      A134          0         0.17281000         1.00800000
   309 lmp_006                 1 R01      A135          0         0.02131000        12.01000000
   310 lmp_005                 1 R01      A136          0         0.02031000        12.01000000
   311 lmp_005                 1 R01      A137          0        -0.24969000        12.01000000
   312 lmp_008                 1 R01      A138          0         0.17861000         1.00800000
   313 lmp_005                 1 R01      A139          0        -0.03239000        12.01000000
   314 lmp_007                 1 R01      A13a          0         0.03221000        12.01000000
   315 lmp_009                 1 R01      A13b          0         0.02561000         1.00800000
   316 lmp_007                 1 R01      A13c          0         0.02991000        12.01000000
   317 lmp_009                 1 R01      A13d          0         0.02761000         1.00800000
   318 lmp_004                 1 R01      A13e          0         0.05471000        12.01000000
   319 lmp_009                 1 R01      A13f          0         0.00921000         1.00800000
   320 lmp_007                 1 R01      A140          0         0.00911000        12.01000000
   321 lmp_009                 1 R01      A141          0         0.03851000         1.00800000
   322 lmp_005                 1 R01      A142          0        -0.12349000        12.01000000
   323 lmp_005                 1 R01      A143          0        -0.12549000        12.01000000
   324 lmp_005                 1 R01      A144          0         0.03581000        12.01000000
   325 lmp_003                 1 R01      A145          0        -0.11109000        12.01000000
   326 lmp_009                 1 R01      A146          0         0.04331000         1.00800000
   327 lmp_009                 1 R01      A147          0         0.04331000         1.00800000
   328 lmp_009                 1 R01      A148          0         0.04331000         1.00800000
   329 lmp_005                 1 R01      A149          0        -0.08649000        12.01000000
   330 lmp_005                 1 R01      A14a          0        -0.09149000        12.01000000
   331 lmp_005                 1 R01      A14b          0         0.05181000        12.01000000
   332 lmp_003                 1 R01      A14c          0        -0.10009000        12.01000000
   333 lmp_009                 1 R01      A14d          0         0.04551000         1.00800000
   334 lmp_009                 1 R01      A14e          0         0.04551000         1.00800000
   335 lmp_009                 1 R01      A14f          0         0.04551000         1.00800000
   336 lmp_007                 1 R01      A150          0         0.00531000        12.01000000
   337 lmp_009                 1 R01      A151          0         0.03971000         1.00800000
   338 lmp_004                 1 R01      A152          0         0.05571000        12.01000000
   339 lmp_009                 1 R01      A153          0         0.01041000         1.00800000
   340 lmp_004                 1 R01      A154          0        -0.21059000        12.01000000
   341 lmp_009                 1 R01      A155          0         0.05311000         1.00800000
   342 lmp_009                 1 R01      A156          0         0.05311000         1.00800000
   343 lmp_005                 1 R01      A157          0        -0.04569000        12.01000000
   344 lmp_005                 1 R01      A158          0        -0.20379000        12.01000000
   345 lmp_008                 1 R01      A159          0         0.15591000         1.00800000
   346 lmp_003                 1 R01      A15a          0        -0.10048000        12.01000000
   347 lmp_009                 1 R01      A15b          0         0.02361000         1.00800000
   348 lmp_009                 1 R01      A15c          0         0.02361000         1.00800000
   349 lmp_009                 1 R01      A15d          0         0.02361000         1.00800000
   350 lmp_004                 1 R01      A15e          0         0.19001000        12.01000000
   351 lmp_003                 1 R01      A15f          0        -0.17889000        12.01000000
   352 lmp_009                 1 R01      A160          0         0.04121000         1.00800000
   353 lmp_009                 1 R01      A161          0         0.04121000         1.00800000
   354 lmp_009                 1 R01      A162          0         0.04121000         1.00800000
   355 lmp_005                 1 R01      A163          0         0.00401000        12.01000000
   356 lmp_006                 1 R01      A164          0         0.00111000        12.01000000
   357 lmp_005                 1 R01      A165          0        -0.18989000        12.01000000
   358 lmp_008                 1 R01      A166          0         0.14431000         1.00800000
   359 lmp_005                 1 R01      A167          0        -0.04879000        12.01000000
   360 lmp_007                 1 R01      A168          0         0.03141000        12.01000000
   361 lmp_009                 1 R01      A169          0         0.03521000         1.00800000
   362 lmp_007                 1 R01      A16a          0         0.01591000        12.01000000
   363 lmp_009                 1 R01      A16b          0         0.03721000         1.00800000
   364 lmp_004                 1 R01      A16c          0         0.02141000        12.01000000
   365 lmp_009                 1 R01      A16d          0         0.01911000         1.00800000
   366 lmp_007                 1 R01      A16e          0         0.02241000        12.01000000
   367 lmp_009                 1 R01      A16f          0         0.03781000         1.00800000
   368 lmp_007                 1 R01      A170          0         0.01411000        12.01000000
   369 lmp_009                 1 R01      A171          0         0.03861000         1.00800000
   370 lmp_004                 1 R01      A172          0         0.01111000        12.01000000
   371 lmp_009                 1 R01      A173          0         0.02341000         1.00800000
   372 lmp_004                 1 R01      A174          0        -0.10289000        12.01000000
   373 lmp_009                 1 R01      A175          0         0.04701000         1.00800000
   374 lmp_009                 1 R01      A176          0         0.04701000         1.00800000
   375 lmp_005                 1 R01      A177          0        -0.03099000        12.01000000
   376 lmp_005                 1 R01      A178          0        -0.25069000        12.01000000
   377 lmp_008                 1 R01      A179          0         0.17281000         1.00800000
   378 lmp_006                 1 R01      A17a          0         0.02131000        12.01000000
   379 lmp_005                 1 R01      A17b          0         0.02031000        12.01000000
   380 lmp_005                 1 R01      A17c          0        -0.24969000        12.01000000
   381 lmp_008                 1 R01      A17d          0         0.17861000         1.00800000
   382 lmp_005                 1 R01      A17e          0        -0.03239000        12.01000000
   383 lmp_007                 1 R01      A17f          0         0.03221000        12.01000000
   384 lmp_009                 1 R01      A180          0         0.02561000         1.00800000
   385 lmp_007                 1 R01      A181          0         0.02991000        12.01000000
   386 lmp_009                 1 R01      A182          0         0.02761000         1.00800000
   387 lmp_004                 1 R01      A183          0         0.05471000        12.01000000
   388 lmp_009                 1 R01      A184          0         0.00921000         1.00800000
   389 lmp_007                 1 R01      A185          0         0.00911000        12.01000000
   390 lmp_009                 1 R01      A186          0         0.03851000         1.00800000
   391 lmp_005                 1 R01      A187          0        -0.12349000        12.01000000
   392 lmp_005                 1 R01      A188          0        -0.12549000        12.01000000
   393 lmp_005                 1 R01      A189          0         0.03581000        12.01000000
   394 lmp_003                 1 R01      A18a          0        -0.11109000        12.01000000
   395 lmp_009                 1 R01      A18b          0         0.04331000         1.00800000
   396 lmp_009                 1 R01      A18c          0         0.04331000         1.00800000
   397 lmp_009                 1 R01      A18d          0         0.04331000         1.00800000
   398 lmp_002                 1 R01      A18e          0        -0.08649000        12.01000000
   399 lmp_002                 1 R01      A18f          0        -0.09149000        12.01000000
   400 lmp_005                 1 R01      A190          0         0.05181000        12.01000000
   401 lmp_003                 1 R01      A191          0        -0.10009000        12.01000000
   402 lmp_009                 1 R01      A192          0         0.04551000         1.00800000
   403 lmp_009                 1 R01      A193          0         0.04551000         1.00800000
   404 lmp_009                 1 R01      A194          0         0.04551000         1.00800000
   405 lmp_007                 1 R01      A195          0         0.00531000        12.01000000
   406 lmp_009                 1 R01      A196          0         0.03971000         1.00800000
   407 lmp_004                 1 R01      A197          0         0.05571000        12.01000000
   408 lmp_009                 1 R01      A198          0         0.01041000         1.00800000
   409 lmp_004                 1 R01      A199          0        -0.21059000        12.01000000
   410 lmp_009                 1 R01      A19a          0         0.05311000         1.00800000
   411 lmp_009                 1 R01      A19b          0         0.05311000         1.00800000
   412 lmp_005                 1 R01      A19c          0        -0.04569000        12.01000000
   413 lmp_005                 1 R01      A19d          0        -0.20379000        12.01000000
   414 lmp_008                 1 R01      A19e          0         0.15591000         1.00800000
   415 lmp_003                 1 R01      A19f          0        -0.10048000        12.01000000
   416 lmp_009                 1 R01      A1a0          0         0.02361000         1.00800000
   417 lmp_009                 1 R01      A1a1          0         0.02361000         1.00800000
   418 lmp_009                 1 R01      A1a2          0         0.02361000         1.00800000
   419 lmp_004                 1 R01      A1a3          0         0.19001000        12.01000000
   420 lmp_003                 1 R01      A1a4          0        -0.17889000        12.01000000
   421 lmp_009                 1 R01      A1a5          0         0.04121000         1.00800000
   422 lmp_009                 1 R01      A1a6          0         0.04121000         1.00800000
   423 lmp_009                 1 R01      A1a7          0         0.04121000         1.00800000
   424 lmp_005                 1 R01      A1a8          0         0.00401000        12.01000000
   425 lmp_006                 1 R01      A1a9          0         0.00111000        12.01000000
   426 lmp_005                 1 R01      A1aa          0        -0.18989000        12.01000000
   427 lmp_008                 1 R01      A1ab          0         0.14431000         1.00800000
   428 lmp_005                 1 R01      A1ac          0        -0.04879000        12.01000000
   429 lmp_007                 1 R01      A1ad          0         0.03141000        12.01000000
   430 lmp_009                 1 R01      A1ae          0         0.03521000         1.00800000
   431 lmp_007                 1 R01      A1af          0         0.01591000        12.01000000
   432 lmp_009                 1 R01      A1b0          0         0.03721000         1.00800000
   433 lmp_004                 1 R01      A1b1          0         0.02141000        12.01000000
   434 lmp_009                 1 R01      A1b2          0         0.01911000         1.00800000
   435 lmp_007                 1 R01      A1b3          0         0.02241000        12.01000000
   436 lmp_009                 1 R01      A1b4          0         0.03781000         1.00800000
   437 lmp_007                 1 R01      A1b5          0         0.01411000        12.01000000
   438 lmp_009                 1 R01      A1b6          0         0.03861000         1.00800000
   439 lmp_004                 1 R01      A1b7          0         0.01111000        12.01000000
   440 lmp_009                 1 R01      A1b8          0         0.02341000         1.00800000
   441 lmp_004                 1 R01      A1b9          0        -0.10289000        12.01000000
   442 lmp_009                 1 R01      A1ba          0         0.04701000         1.00800000
   443 lmp_009                 1 R01      A1bb          0         0.04701000         1.00800000
   444 lmp_005                 1 R01      A1bc          0        -0.03099000        12.01000000
   445 lmp_005                 1 R01      A1bd          0        -0.25069000        12.01000000
   446 lmp_008                 1 R01      A1be          0         0.17281000         1.00800000
   447 lmp_006                 1 R01      A1bf          0         0.02131000        12.01000000
   448 lmp_005                 1 R01      A1c0          0         0.02031000        12.01000000
   449 lmp_005                 1 R01      A1c1          0        -0.24969000        12.01000000
   450 lmp_008                 1 R01      A1c2          0         0.17861000         1.00800000
   451 lmp_005                 1 R01      A1c3          0        -0.03239000        12.01000000
   452 lmp_007                 1 R01      A1c4          0         0.03221000        12.01000000
   453 lmp_009                 1 R01      A1c5          0         0.02561000         1.00800000
   454 lmp_007                 1 R01      A1c6          0         0.02991000        12.01000000
   455 lmp_009                 1 R01      A1c7          0         0.02761000         1.00800000
   456 lmp_004                 1 R01      A1c8          0         0.05471000        12.01000000
   457 lmp_009                 1 R01      A1c9          0         0.00921000         1.00800000
   458 lmp_007                 1 R01      A1ca          0         0.00911000        12.01000000
   459 lmp_009                 1 R01      A1cb          0         0.03851000         1.00800000
   460 lmp_005                 1 R01      A1cc          0        -0.12349000        12.01000000
   461 lmp_005                 1 R01      A1cd          0        -0.12549000        12.01000000
   462 lmp_005                 1 R01      A1ce          0         0.03581000        12.01000000
   463 lmp_003                 1 R01      A1cf          0        -0.11109000        12.01000000
   464 lmp_009                 1 R01      A1d0          0         0.04331000         1.00800000
   465 lmp_009                 1 R01      A1d1          0         0.04331000         1.00800000
   466 lmp_009                 1 R01      A1d2          0         0.04331000         1.00800000
   467 lmp_005                 1 R01      A1d3          0        -0.08649000        12.01000000
   468 lmp_005                 1 R01      A1d4          0        -0.09149000        12.01000000
   469 lmp_005                 1 R01      A1d5          0         0.05181000        12.01000000
   470 lmp_003                 1 R01      A1d6          0        -0.10009000        12.01000000
   471 lmp_009                 1 R01      A1d7          0         0.04551000         1.00800000
   472 lmp_009                 1 R01      A1d8          0         0.04551000         1.00800000
   473 lmp_009                 1 R01      A1d9          0         0.04551000         1.00800000
   474 lmp_007                 1 R01      A1da          0         0.00531000        12.01000000
   475 lmp_009                 1 R01      A1db          0         0.03971000         1.00800000
   476 lmp_004                 1 R01      A1dc          0         0.05571000        12.01000000
   477 lmp_009                 1 R01      A1dd          0         0.01041000         1.00800000
   478 lmp_004                 1 R01      A1de          0        -0.21059000        12.01000000
   479 lmp_009                 1 R01      A1df          0         0.05311000         1.00800000
   480 lmp_009                 1 R01      A1e0          0         0.05311000         1.00800000
   481 lmp_005                 1 R01      A1e1          0        -0.04569000        12.01000000
   482 lmp_005                 1 R01      A1e2          0        -0.20379000        12.01000000
   483 lmp_008                 1 R01      A1e3          0         0.15591000         1.00800000
   484 lmp_003                 1 R01      A1e4          0        -0.10048000        12.01000000
   485 lmp_009                 1 R01      A1e5          0         0.02361000         1.00800000
   486 lmp_009                 1 R01      A1e6          0         0.02361000         1.00800000
   487 lmp_009                 1 R01      A1e7          0         0.02361000         1.00800000
   488 lmp_004                 1 R01      A1e8          0         0.19001000        12.01000000
   489 lmp_003                 1 R01      A1e9          0        -0.17889000        12.01000000
   490 lmp_009                 1 R01      A1ea          0         0.04121000         1.00800000
   491 lmp_009                 1 R01      A1eb          0         0.04121000         1.00800000
   492 lmp_009                 1 R01      A1ec          0         0.04121000         1.00800000
   493 lmp_005                 1 R01      A1ed          0         0.00401000        12.01000000
   494 lmp_006                 1 R01      A1ee          0         0.00111000        12.01000000
   495 lmp_005                 1 R01      A1ef          0        -0.18989000        12.01000000
   496 lmp_008                 1 R01      A1f0          0         0.14431000         1.00800000
   497 lmp_005                 1 R01      A1f1          0        -0.04879000        12.01000000
   498 lmp_007                 1 R01      A1f2          0         0.03141000        12.01000000
   499 lmp_009                 1 R01      A1f3          0         0.03521000         1.00800000
   500 lmp_007                 1 R01      A1f4          0         0.01591000        12.01000000
   501 lmp_009                 1 R01      A1f5          0         0.03721000         1.00800000
   502 lmp_004                 1 R01      A1f6          0         0.02141000        12.01000000
   503 lmp_009                 1 R01      A1f7          0         0.01911000         1.00800000
   504 lmp_007                 1 R01      A1f8          0         0.02241000        12.01000000
   505 lmp_009                 1 R01      A1f9          0         0.03781000         1.00800000
   506 lmp_007                 1 R01      A1fa          0         0.01411000        12.01000000
   507 lmp_009                 1 R01      A1fb          0         0.03861000         1.00800000
   508 lmp_004                 1 R01      A1fc          0         0.01111000        12.01000000
   509 lmp_009                 1 R01      A1fd          0         0.02341000         1.00800000
   510 lmp_004                 1 R01      A1fe          0        -0.10289000        12.01000000
   511 lmp_009                 1 R01      A1ff          0         0.04701000         1.00800000
   512 lmp_009                 1 R01      A200          0         0.04701000         1.00800000
   513 lmp_005                 1 R01      A201          0        -0.03099000        12.01000000
   514 lmp_005                 1 R01      A202          0        -0.25069000        12.01000000
   515 lmp_008                 1 R01      A203          0         0.17281000         1.00800000
   516 lmp_006                 1 R01      A204          0         0.02131000        12.01000000
   517 lmp_005                 1 R01      A205          0         0.02031000        12.01000000
   518 lmp_005                 1 R01      A206          0        -0.24969000        12.01000000
   519 lmp_008                 1 R01      A207          0         0.17861000         1.00800000
   520 lmp_005                 1 R01      A208          0        -0.03239000        12.01000000
   521 lmp_007                 1 R01      A209          0         0.03221000        12.01000000
   522 lmp_009                 1 R01      A20a          0         0.02561000         1.00800000
   523 lmp_007                 1 R01      A20b          0         0.02991000        12.01000000
   524 lmp_009                 1 R01      A20c          0         0.02761000         1.00800000
   525 lmp_004                 1 R01      A20d          0         0.05471000        12.01000000
   526 lmp_009                 1 R01      A20e          0         0.00921000         1.00800000
   527 lmp_007                 1 R01      A20f          0         0.00911000        12.01000000
   528 lmp_009                 1 R01      A210          0         0.03851000         1.00800000
   529 lmp_005                 1 R01      A211          0        -0.12349000        12.01000000
   530 lmp_005                 1 R01      A212          0        -0.12549000        12.01000000
   531 lmp_005                 1 R01      A213          0         0.03581000        12.01000000
   532 lmp_003                 1 R01      A214          0        -0.11109000        12.01000000
   533 lmp_009                 1 R01      A215          0         0.04331000         1.00800000
   534 lmp_009                 1 R01      A216          0         0.04331000         1.00800000
   535 lmp_009                 1 R01      A217          0         0.04331000         1.00800000
   536 lmp_005                 1 R01      A218          0        -0.08649000        12.01000000
   537 lmp_005                 1 R01      A219          0        -0.09149000        12.01000000
   538 lmp_005                 1 R01      A21a          0         0.05181000        12.01000000
   539 lmp_003                 1 R01      A21b          0        -0.10009000        12.01000000
   540 lmp_009                 1 R01      A21c          0         0.04551000         1.00800000
   541 lmp_009                 1 R01      A21d          0         0.04551000         1.00800000
   542 lmp_009                 1 R01      A21e          0         0.04551000         1.00800000
   543 lmp_007                 1 R01      A21f          0         0.00531000        12.01000000
   544 lmp_009                 1 R01      A220          0         0.03971000         1.00800000
   545 lmp_004                 1 R01      A221          0         0.05571000        12.01000000
   546 lmp_009                 1 R01      A222          0         0.01041000         1.00800000
   547 lmp_004                 1 R01      A223          0        -0.21059000        12.01000000
   548 lmp_009                 1 R01      A224          0         0.05311000         1.00800000
   549 lmp_009                 1 R01      A225          0         0.05311000         1.00800000
   550 lmp_005                 1 R01      A226          0        -0.04569000        12.01000000
   551 lmp_005                 1 R01      A227          0        -0.20379000        12.01000000
   552 lmp_008                 1 R01      A228          0         0.15591000         1.00800000
   553 lmp_003                 1 R01      A229          0        -0.10048000        12.01000000
   554 lmp_009                 1 R01      A22a          0         0.02361000         1.00800000
   555 lmp_009                 1 R01      A22b          0         0.02361000         1.00800000
   556 lmp_009                 1 R01      A22c          0         0.02361000         1.00800000
   557 lmp_004                 1 R01      A22d          0         0.19001000        12.01000000
   558 lmp_003                 1 R01      A22e          0        -0.17889000        12.01000000
   559 lmp_009                 1 R01      A22f          0         0.04121000         1.00800000
   560 lmp_009                 1 R01      A230          0         0.04121000         1.00800000
   561 lmp_009                 1 R01      A231          0         0.04121000         1.00800000
   562 lmp_005                 1 R01      A232          0         0.00401000        12.01000000
   563 lmp_006                 1 R01      A233          0         0.00111000        12.01000000
   564 lmp_005                 1 R01      A234          0        -0.18989000        12.01000000
   565 lmp_008                 1 R01      A235          0         0.14431000         1.00800000
   566 lmp_005                 1 R01      A236          0        -0.04879000        12.01000000
   567 lmp_007                 1 R01      A237          0         0.03141000        12.01000000
   568 lmp_009                 1 R01      A238          0         0.03521000         1.00800000
   569 lmp_007                 1 R01      A239          0         0.01591000        12.01000000
   570 lmp_009                 1 R01      A23a          0         0.03721000         1.00800000
   571 lmp_004                 1 R01      A23b          0         0.02141000        12.01000000
   572 lmp_009                 1 R01      A23c          0         0.01911000         1.00800000
   573 lmp_007                 1 R01      A23d          0         0.02241000        12.01000000
   574 lmp_009                 1 R01      A23e          0         0.03781000         1.00800000
   575 lmp_007                 1 R01      A23f          0         0.01411000        12.01000000
   576 lmp_009                 1 R01      A240          0         0.03861000         1.00800000
   577 lmp_004                 1 R01      A241          0         0.01111000        12.01000000
   578 lmp_009                 1 R01      A242          0         0.02341000         1.00800000
   579 lmp_004                 1 R01      A243          0        -0.10289000        12.01000000
   580 lmp_009                 1 R01      A244          0         0.04701000         1.00800000
   581 lmp_009                 1 R01      A245          0         0.04701000         1.00800000
   582 lmp_005                 1 R01      A246          0        -0.03099000        12.01000000
   583 lmp_005                 1 R01      A247          0        -0.25069000        12.01000000
   584 lmp_008                 1 R01      A248          0         0.17281000         1.00800000
   585 lmp_006                 1 R01      A249          0         0.02131000        12.01000000
   586 lmp_005                 1 R01      A24a          0         0.02031000        12.01000000
   587 lmp_005                 1 R01      A24b          0        -0.24969000        12.01000000
   588 lmp_008                 1 R01      A24c          0         0.17861000         1.00800000
   589 lmp_005                 1 R01      A24d          0        -0.03239000        12.01000000
   590 lmp_007                 1 R01      A24e          0         0.03221000        12.01000000
   591 lmp_009                 1 R01      A24f          0         0.02561000         1.00800000
   592 lmp_007                 1 R01      A250          0         0.02991000        12.01000000
   593 lmp_009                 1 R01      A251          0         0.02761000         1.00800000
   594 lmp_004                 1 R01      A252          0         0.05471000        12.01000000
   595 lmp_009                 1 R01      A253          0         0.00921000         1.00800000
   596 lmp_007                 1 R01      A254          0         0.00911000        12.01000000
   597 lmp_009                 1 R01      A255          0         0.03851000         1.00800000
   598 lmp_005                 1 R01      A256          0        -0.12349000        12.01000000
   599 lmp_005                 1 R01      A257          0        -0.12549000        12.01000000
   600 lmp_005                 1 R01      A258          0         0.03581000        12.01000000
   601 lmp_003                 1 R01      A259          0        -0.11109000        12.01000000
   602 lmp_009                 1 R01      A25a          0         0.04331000         1.00800000
   603 lmp_009                 1 R01      A25b          0         0.04331000         1.00800000
   604 lmp_009                 1 R01      A25c          0         0.04331000         1.00800000
   605 lmp_005                 1 R01      A25d          0        -0.08649000        12.01000000
   606 lmp_005                 1 R01      A25e          0        -0.09149000        12.01000000
   607 lmp_005                 1 R01      A25f          0         0.05181000        12.01000000
   608 lmp_003                 1 R01      A260          0        -0.10009000        12.01000000
   609 lmp_009                 1 R01      A261          0         0.04551000         1.00800000
   610 lmp_009                 1 R01      A262          0         0.04551000         1.00800000
   611 lmp_009                 1 R01      A263          0         0.04551000         1.00800000
   612 lmp_007                 1 R01      A264          0         0.00531000        12.01000000
   613 lmp_009                 1 R01      A265          0         0.03971000         1.00800000
   614 lmp_004                 1 R01      A266          0         0.05571000        12.01000000
   615 lmp_009                 1 R01      A267          0         0.01041000         1.00800000
   616 lmp_004                 1 R01      A268          0        -0.21059000        12.01000000
   617 lmp_009                 1 R01      A269          0         0.05311000         1.00800000
   618 lmp_009                 1 R01      A26a          0         0.05311000         1.00800000
   619 lmp_005                 1 R01      A26b          0        -0.04569000        12.01000000
   620 lmp_005                 1 R01      A26c          0        -0.20379000        12.01000000
   621 lmp_008                 1 R01      A26d          0         0.15591000         1.00800000
   622 lmp_003                 1 R01      A26e          0        -0.10048000        12.01000000
   623 lmp_009                 1 R01      A26f          0         0.02361000         1.00800000
   624 lmp_009                 1 R01      A270          0         0.02361000         1.00800000
   625 lmp_009                 1 R01      A271          0         0.02361000         1.00800000
   626 lmp_004                 1 R01      A272          0         0.19001000        12.01000000
   627 lmp_003                 1 R01      A273          0        -0.17889000        12.01000000
   628 lmp_009                 1 R01      A274          0         0.04121000         1.00800000
   629 lmp_009                 1 R01      A275          0         0.04121000         1.00800000
   630 lmp_009                 1 R01      A276          0         0.04121000         1.00800000
   631 lmp_005                 1 R01      A277          0         0.00401000        12.01000000
   632 lmp_006                 1 R01      A278          0         0.00111000        12.01000000
   633 lmp_005                 1 R01      A279          0        -0.18989000        12.01000000
   634 lmp_008                 1 R01      A27a          0         0.14431000         1.00800000
   635 lmp_005                 1 R01      A27b          0        -0.04879000        12.01000000
   636 lmp_007                 1 R01      A27c          0         0.03141000        12.01000000
   637 lmp_009                 1 R01      A27d          0         0.03521000         1.00800000
   638 lmp_007                 1 R01      A27e          0         0.01591000        12.01000000
   639 lmp_009                 1 R01      A27f          0         0.03721000         1.00800000
   640 lmp_004                 1 R01      A280          0         0.02141000        12.01000000
   641 lmp_009                 1 R01      A281          0         0.01911000         1.00800000
   642 lmp_007                 1 R01      A282          0         0.02241000        12.01000000
   643 lmp_009                 1 R01      A283          0         0.03781000         1.00800000
   644 lmp_007                 1 R01      A284          0         0.01411000        12.01000000
   645 lmp_009                 1 R01      A285          0         0.03861000         1.00800000
   646 lmp_004                 1 R01      A286          0         0.01111000        12.01000000
   647 lmp_009                 1 R01      A287          0         0.02341000         1.00800000
   648 lmp_004                 1 R01      A288          0        -0.10289000        12.01000000
   649 lmp_009                 1 R01      A289          0         0.04701000         1.00800000
   650 lmp_009                 1 R01      A28a          0         0.04701000         1.00800000
   651 lmp_005                 1 R01      A28b          0        -0.03099000        12.01000000
   652 lmp_005                 1 R01      A28c          0        -0.25069000        12.01000000
   653 lmp_008                 1 R01      A28d          0         0.17281000         1.00800000
   654 lmp_006                 1 R01      A28e          0         0.02131000        12.01000000
   655 lmp_005                 1 R01      A28f          0         0.02031000        12.01000000
   656 lmp_005                 1 R01      A290          0        -0.24969000        12.01000000
   657 lmp_008                 1 R01      A291          0         0.17861000         1.00800000
   658 lmp_005                 1 R01      A292          0        -0.03239000        12.01000000
   659 lmp_007                 1 R01      A293          0         0.03221000        12.01000000
   660 lmp_009                 1 R01      A294          0         0.02561000         1.00800000
   661 lmp_007                 1 R01      A295          0         0.02991000        12.01000000
   662 lmp_009                 1 R01      A296          0         0.02761000         1.00800000
   663 lmp_004                 1 R01      A297          0         0.05471000        12.01000000
   664 lmp_009                 1 R01      A298          0         0.00921000         1.00800000
   665 lmp_007                 1 R01      A299          0         0.00911000        12.01000000
   666 lmp_009                 1 R01      A29a          0         0.03851000         1.00800000
   667 lmp_005                 1 R01      A29b          0        -0.12349000        12.01000000
   668 lmp_005                 1 R01      A29c          0        -0.12549000        12.01000000
   669 lmp_005                 1 R01      A29d          0         0.03581000        12.01000000
   670 lmp_003                 1 R01      A29e          0        -0.11109000        12.01000000
   671 lmp_009                 1 R01      A29f          0         0.04331000         1.00800000
   672 lmp_009                 1 R01      A2a0          0         0.04331000         1.00800000
   673 lmp_009                 1 R01      A2a1          0         0.04331000         1.00800000
   674 lmp_005                 1 R01      A2a2          0        -0.08649000        12.01000000
   675 lmp_005                 1 R01      A2a3          0        -0.09149000        12.01000000
   676 lmp_005                 1 R01      A2a4          0         0.05181000        12.01000000
   677 lmp_003                 1 R01      A2a5          0        -0.10009000        12.01000000
   678 lmp_009                 1 R01      A2a6          0         0.04551000         1.00800000
   679 lmp_009                 1 R01      A2a7          0         0.04551000         1.00800000
   680 lmp_009                 1 R01      A2a8          0         0.04551000         1.00800000
   681 lmp_007                 1 R01      A2a9          0         0.00531000        12.01000000
   682 lmp_009                 1 R01      A2aa          0         0.03971000         1.00800000
   683 lmp_004                 1 R01      A2ab          0         0.05571000        12.01000000
   684 lmp_009                 1 R01      A2ac          0         0.01041000         1.00800000
   685 lmp_004                 1 R01      A2ad          0        -0.21059000        12.01000000
   686 lmp_009                 1 R01      A2ae          0         0.05311000         1.00800000
   687 lmp_009                 1 R01      A2af          0         0.05311000         1.00800000
   688 lmp_005                 1 R01      A2b0          0        -0.04569000        12.01000000
   689 lmp_005                 1 R01      A2b1          0        -0.20379000        12.01000000
   690 lmp_008                 1 R01      A2b2          0         0.15591000         1.00800000
   691 lmp_003                 1 R01      A2b3          0        -0.10048000        12.01000000
   692 lmp_009                 1 R01      A2b4          0         0.02361000         1.00800000
   693 lmp_009                 1 R01      A2b5          0         0.02361000         1.00800000
   694 lmp_009                 1 R01      A2b6          0         0.02361000         1.00800000
   695 lmp_004                 1 R01      A2b7          0         0.19001000        12.01000000
   696 lmp_003                 1 R01      A2b8          0        -0.17889000        12.01000000
   697 lmp_009                 1 R01      A2b9          0         0.04121000         1.00800000
   698 lmp_009                 1 R01      A2ba          0         0.04121000         1.00800000
   699 lmp_009                 1 R01      A2bb          0         0.04121000         1.00800000
   700 lmp_005                 1 R01      A2bc          0         0.00401000        12.01000000
   701 lmp_006                 1 R01      A2bd          0         0.00111000        12.01000000
   702 lmp_005                 1 R01      A2be          0        -0.18989000        12.01000000
   703 lmp_008                 1 R01      A2bf          0         0.14431000         1.00800000
   704 lmp_005                 1 R01      A2c0          0        -0.04879000        12.01000000
   705 lmp_007                 1 R01      A2c1          0         0.03141000        12.01000000
   706 lmp_009                 1 R01      A2c2          0         0.03521000         1.00800000
   707 lmp_007                 1 R01      A2c3          0         0.01591000        12.01000000
   708 lmp_009                 1 R01      A2c4          0         0.03721000         1.00800000
   709 lmp_004                 1 R01      A2c5          0         0.02141000        12.01000000
   710 lmp_009                 1 R01      A2c6          0         0.01911000         1.00800000
   711 lmp_007                 1 R01      A2c7          0         0.02241000        12.01000000
   712 lmp_009                 1 R01      A2c8          0         0.03781000         1.00800000
   713 lmp_007                 1 R01      A2c9          0         0.01411000        12.01000000
   714 lmp_009                 1 R01      A2ca          0         0.03861000         1.00800000
   715 lmp_004                 1 R01      A2cb          0         0.01111000        12.01000000
   716 lmp_009                 1 R01      A2cc          0         0.02341000         1.00800000
   717 lmp_004                 1 R01      A2cd          0        -0.10289000        12.01000000
   718 lmp_009                 1 R01      A2ce          0         0.04701000         1.00800000
   719 lmp_009                 1 R01      A2cf          0         0.04701000         1.00800000
   720 lmp_005                 1 R01      A2d0          0        -0.03099000        12.01000000
   721 lmp_005                 1 R01      A2d1          0        -0.25069000        12.01000000
   722 lmp_008                 1 R01      A2d2          0         0.17281000         1.00800000
   723 lmp_006                 1 R01      A2d3          0         0.02131000        12.01000000
   724 lmp_005                 1 R01      A2d4          0         0.02031000        12.01000000
   725 lmp_005                 1 R01      A2d5          0        -0.24969000        12.01000000
   726 lmp_008                 1 R01      A2d6          0         0.17861000         1.00800000
   727 lmp_005                 1 R01      A2d7          0        -0.03239000        12.01000000
   728 lmp_007                 1 R01      A2d8          0         0.03221000        12.01000000
   729 lmp_009                 1 R01      A2d9          0         0.02561000         1.00800000
   730 lmp_007                 1 R01      A2da          0         0.02991000        12.01000000
   731 lmp_009                 1 R01      A2db          0         0.02761000         1.00800000
   732 lmp_004                 1 R01      A2dc          0         0.05471000        12.01000000
   733 lmp_009                 1 R01      A2dd          0         0.00921000         1.00800000
   734 lmp_007                 1 R01      A2de          0         0.00911000        12.01000000
   735 lmp_009                 1 R01      A2df          0         0.03851000         1.00800000
   736 lmp_005                 1 R01      A2e0          0        -0.12349000        12.01000000
   737 lmp_005                 1 R01      A2e1          0        -0.12549000        12.01000000
   738 lmp_005                 1 R01      A2e2          0         0.03581000        12.01000000
   739 lmp_003                 1 R01      A2e3          0        -0.11109000        12.01000000
   740 lmp_009                 1 R01      A2e4          0         0.04331000         1.00800000
   741 lmp_009                 1 R01      A2e5          0         0.04331000         1.00800000
   742 lmp_009                 1 R01      A2e6          0         0.04331000         1.00800000
   743 lmp_005                 1 R01      A2e7          0        -0.08649000        12.01000000
   744 lmp_005                 1 R01      A2e8          0        -0.09149000        12.01000000
   745 lmp_005                 1 R01      A2e9          0         0.05181000        12.01000000
   746 lmp_003                 1 R01      A2ea          0        -0.10009000        12.01000000
   747 lmp_009                 1 R01      A2eb          0         0.04551000         1.00800000
   748 lmp_009                 1 R01      A2ec          0         0.04551000         1.00800000
   749 lmp_009                 1 R01      A2ed          0         0.04551000         1.00800000
   750 lmp_007                 1 R01      A2ee          0         0.00531000        12.01000000
   751 lmp_009                 1 R01      A2ef          0         0.03971000         1.00800000
   752 lmp_004                 1 R01      A2f0          0         0.05571000        12.01000000
   753 lmp_009                 1 R01      A2f1          0         0.01041000         1.00800000
   754 lmp_004                 1 R01      A2f2          0        -0.21059000        12.01000000
   755 lmp_009                 1 R01      A2f3          0         0.05311000         1.00800000
   756 lmp_009                 1 R01      A2f4          0         0.05311000         1.00800000
   757 lmp_005                 1 R01      A2f5          0        -0.04569000        12.01000000
   758 lmp_005                 1 R01      A2f6          0        -0.20379000        12.01000000
   759 lmp_008                 1 R01      A2f7          0         0.15591000         1.00800000
   760 lmp_003                 1 R01      A2f8          0        -0.10048000        12.01000000
   761 lmp_009                 1 R01      A2f9          0         0.02361000         1.00800000
   762 lmp_009                 1 R01      A2fa          0         0.02361000         1.00800000
   763 lmp_009                 1 R01      A2fb          0         0.02361000         1.00800000
   764 lmp_004                 1 R01      A2fc          0         0.19001000        12.01000000
   765 lmp_003                 1 R01      A2fd          0        -0.17889000        12.01000000
   766 lmp_009                 1 R01      A2fe          0         0.04121000         1.00800000
   767 lmp_009                 1 R01      A2ff          0         0.04121000         1.00800000
   768 lmp_009                 1 R01      A300          0         0.04121000         1.00800000
   769 lmp_005                 1 R01      A301          0         0.00401000        12.01000000
   770 lmp_006                 1 R01      A302          0         0.00111000        12.01000000
   771 lmp_005                 1 R01      A303          0        -0.18989000        12.01000000
   772 lmp_008                 1 R01      A304          0         0.14431000         1.00800000
   773 lmp_005                 1 R01      A305          0        -0.04879000        12.01000000
   774 lmp_007                 1 R01      A306          0         0.03141000        12.01000000
   775 lmp_009                 1 R01      A307          0         0.03521000         1.00800000
   776 lmp_007                 1 R01      A308          0         0.01591000        12.01000000
   777 lmp_009                 1 R01      A309          0         0.03721000         1.00800000
   778 lmp_004                 1 R01      A30a          0         0.02141000        12.01000000
   779 lmp_009                 1 R01      A30b          0         0.01911000         1.00800000
   780 lmp_007                 1 R01      A30c          0         0.02241000        12.01000000
   781 lmp_009                 1 R01      A30d          0         0.03781000         1.00800000
   782 lmp_007                 1 R01      A30e          0         0.01411000        12.01000000
   783 lmp_009                 1 R01      A30f          0         0.03861000         1.00800000
   784 lmp_004                 1 R01      A310          0         0.01111000        12.01000000
   785 lmp_009                 1 R01      A311          0         0.02341000         1.00800000
   786 lmp_004                 1 R01      A312          0        -0.10289000        12.01000000
   787 lmp_009                 1 R01      A313          0         0.04701000         1.00800000
   788 lmp_009                 1 R01      A314          0         0.04701000         1.00800000
   789 lmp_005                 1 R01      A315          0        -0.03099000        12.01000000
   790 lmp_005                 1 R01      A316          0        -0.25069000        12.01000000
   791 lmp_008                 1 R01      A317          0         0.17281000         1.00800000
   792 lmp_006                 1 R01      A318          0         0.02131000        12.01000000
   793 lmp_005                 1 R01      A319          0         0.02031000        12.01000000
   794 lmp_005                 1 R01      A31a          0        -0.24969000        12.01000000
   795 lmp_008                 1 R01      A31b          0         0.17861000         1.00800000
   796 lmp_005                 1 R01      A31c          0        -0.03239000        12.01000000
   797 lmp_007                 1 R01      A31d          0         0.03221000        12.01000000
   798 lmp_009                 1 R01      A31e          0         0.02561000         1.00800000
   799 lmp_007                 1 R01      A31f          0         0.02991000        12.01000000
   800 lmp_009                 1 R01      A320          0         0.02761000         1.00800000
   801 lmp_004                 1 R01      A321          0         0.05471000        12.01000000
   802 lmp_009                 1 R01      A322          0         0.00921000         1.00800000
   803 lmp_007                 1 R01      A323          0         0.00911000        12.01000000
   804 lmp_009                 1 R01      A324          0         0.03851000         1.00800000
   805 lmp_005                 1 R01      A325          0        -0.12349000        12.01000000
   806 lmp_005                 1 R01      A326          0        -0.12549000        12.01000000
   807 lmp_005                 1 R01      A327          0         0.03581000        12.01000000
   808 lmp_003                 1 R01      A328          0        -0.11109000        12.01000000
   809 lmp_009                 1 R01      A329          0         0.04331000         1.00800000
   810 lmp_009                 1 R01      A32a          0         0.04331000         1.00800000
   811 lmp_009                 1 R01      A32b          0         0.04331000         1.00800000
   812 lmp_005                 1 R01      A32c          0        -0.08649000        12.01000000
   813 lmp_005                 1 R01      A32d          0        -0.09149000        12.01000000
   814 lmp_005                 1 R01      A32e          0         0.05181000        12.01000000
   815 lmp_003                 1 R01      A32f          0        -0.10009000        12.01000000
   816 lmp_009                 1 R01      A330          0         0.04551000         1.00800000
   817 lmp_009                 1 R01      A331          0         0.04551000         1.00800000
   818 lmp_009                 1 R01      A332          0         0.04551000         1.00800000
   819 lmp_007                 1 R01      A333          0         0.00531000        12.01000000
   820 lmp_009                 1 R01      A334          0         0.03971000         1.00800000
   821 lmp_004                 1 R01      A335          0         0.05571000        12.01000000
   822 lmp_009                 1 R01      A336          0         0.01041000         1.00800000
   823 lmp_004                 1 R01      A337          0        -0.21059000        12.01000000
   824 lmp_009                 1 R01      A338          0         0.05311000         1.00800000
   825 lmp_009                 1 R01      A339          0         0.05311000         1.00800000
   826 lmp_005                 1 R01      A33a          0        -0.04569000        12.01000000
   827 lmp_005                 1 R01      A33b          0        -0.20379000        12.01000000
   828 lmp_008                 1 R01      A33c          0         0.15591000         1.00800000
   829 lmp_003                 1 R01      A33d          0        -0.10048000        12.01000000
   830 lmp_009                 1 R01      A33e          0         0.02361000         1.00800000
   831 lmp_009                 1 R01      A33f          0         0.02361000         1.00800000
   832 lmp_009                 1 R01      A340          0         0.02361000         1.00800000
   833 lmp_004                 1 R01      A341          0         0.19001000        12.01000000
   834 lmp_003                 1 R01      A342          0        -0.17889000        12.01000000
   835 lmp_009                 1 R01      A343          0         0.04121000         1.00800000
   836 lmp_009                 1 R01      A344          0         0.04121000         1.00800000
   837 lmp_009                 1 R01      A345          0         0.04121000         1.00800000
   838 lmp_005                 1 R01      A346          0         0.00401000        12.01000000
   839 lmp_006                 1 R01      A347          0         0.00111000        12.01000000
   840 lmp_005                 1 R01      A348          0        -0.18989000        12.01000000
   841 lmp_008                 1 R01      A349          0         0.14431000         1.00800000
   842 lmp_005                 1 R01      A34a          0        -0.04879000        12.01000000
   843 lmp_007                 1 R01      A34b          0         0.03141000        12.01000000
   844 lmp_009                 1 R01      A34c          0         0.03521000         1.00800000
   845 lmp_007                 1 R01      A34d          0         0.01591000        12.01000000
   846 lmp_009                 1 R01      A34e          0         0.03721000         1.00800000
   847 lmp_004                 1 R01      A34f          0         0.02141000        12.01000000
   848 lmp_009                 1 R01      A350          0         0.01911000         1.00800000
   849 lmp_007                 1 R01      A351          0         0.02241000        12.01000000
   850 lmp_009                 1 R01      A352          0         0.03781000         1.00800000
   851 lmp_007                 1 R01      A353          0         0.01411000        12.01000000
   852 lmp_009                 1 R01      A354          0         0.03861000         1.00800000
   853 lmp_004                 1 R01      A355          0         0.01111000        12.01000000
   854 lmp_009                 1 R01      A356          0         0.02341000         1.00800000
   855 lmp_004                 1 R01      A357          0        -0.10289000        12.01000000
   856 lmp_009                 1 R01      A358          0         0.04701000         1.00800000
   857 lmp_009                 1 R01      A359          0         0.04701000         1.00800000
   858 lmp_005                 1 R01      A35a          0        -0.03099000        12.01000000
   859 lmp_005                 1 R01      A35b          0        -0.25069000        12.01000000
   860 lmp_008                 1 R01      A35c          0         0.17281000         1.00800000
   861 lmp_006                 1 R01      A35d          0         0.02131000        12.01000000
   862 lmp_005                 1 R01      A35e          0         0.02031000        12.01000000
   863 lmp_005                 1 R01      A35f          0        -0.24969000        12.01000000
   864 lmp_008                 1 R01      A360          0         0.17861000         1.00800000
   865 lmp_005                 1 R01      A361          0        -0.03239000        12.01000000
   866 lmp_007                 1 R01      A362          0         0.03221000        12.01000000
   867 lmp_009                 1 R01      A363          0         0.02561000         1.00800000
   868 lmp_007                 1 R01      A364          0         0.02991000        12.01000000
   869 lmp_009                 1 R01      A365          0         0.02761000         1.00800000
   870 lmp_004                 1 R01      A366          0         0.05471000        12.01000000
   871 lmp_009                 1 R01      A367          0         0.00921000         1.00800000
   872 lmp_007                 1 R01      A368          0         0.00911000        12.01000000
   873 lmp_009                 1 R01      A369          0         0.03851000         1.00800000
   874 lmp_005                 1 R01      A36a          0        -0.12349000        12.01000000
   875 lmp_005                 1 R01      A36b          0        -0.12549000        12.01000000
   876 lmp_005                 1 R01      A36c          0         0.03581000        12.01000000
   877 lmp_003                 1 R01      A36d          0        -0.11109000        12.01000000
   878 lmp_009                 1 R01      A36e          0         0.04331000         1.00800000
   879 lmp_009                 1 R01      A36f          0         0.04331000         1.00800000
   880 lmp_009                 1 R01      A370          0         0.04331000         1.00800000
   881 lmp_005                 1 R01      A371          0        -0.08649000        12.01000000
   882 lmp_005                 1 R01      A372          0        -0.09149000        12.01000000
   883 lmp_005                 1 R01      A373          0         0.05181000        12.01000000
   884 lmp_003                 1 R01      A374          0        -0.10009000        12.01000000
   885 lmp_009                 1 R01      A375          0         0.04551000         1.00800000
   886 lmp_009                 1 R01      A376          0         0.04551000         1.00800000
   887 lmp_009                 1 R01      A377          0         0.04551000         1.00800000
   888 lmp_007                 1 R01      A378          0         0.00531000        12.01000000
   889 lmp_009                 1 R01      A379          0         0.03971000         1.00800000
   890 lmp_004                 1 R01      A37a          0         0.05571000        12.01000000
   891 lmp_009                 1 R01      A37b          0         0.01041000         1.00800000
   892 lmp_004                 1 R01      A37c          0        -0.21059000        12.01000000
   893 lmp_009                 1 R01      A37d          0         0.05311000         1.00800000
   894 lmp_009                 1 R01      A37e          0         0.05311000         1.00800000
   895 lmp_005                 1 R01      A37f          0        -0.04569000        12.01000000
   896 lmp_005                 1 R01      A380          0        -0.20379000        12.01000000
   897 lmp_008                 1 R01      A381          0         0.15591000         1.00800000
   898 lmp_003                 1 R01      A382          0        -0.10048000        12.01000000
   899 lmp_009                 1 R01      A383          0         0.02361000         1.00800000
   900 lmp_009                 1 R01      A384          0         0.02361000         1.00800000
   901 lmp_009                 1 R01      A385          0         0.02361000         1.00800000
   902 lmp_004                 1 R01      A386          0         0.19001000        12.01000000
   903 lmp_003                 1 R01      A387          0        -0.17889000        12.01000000
   904 lmp_009                 1 R01      A388          0         0.04121000         1.00800000
   905 lmp_009                 1 R01      A389          0         0.04121000         1.00800000
   906 lmp_009                 1 R01      A38a          0         0.04121000         1.00800000
   907 lmp_005                 1 R01      A38b          0         0.00401000        12.01000000
   908 lmp_006                 1 R01      A38c          0         0.00111000        12.01000000
   909 lmp_005                 1 R01      A38d          0        -0.18989000        12.01000000
   910 lmp_008                 1 R01      A38e          0         0.14431000         1.00800000
   911 lmp_005                 1 R01      A38f          0        -0.04879000        12.01000000
   912 lmp_007                 1 R01      A390          0         0.03141000        12.01000000
   913 lmp_009                 1 R01      A391          0         0.03521000         1.00800000
   914 lmp_007                 1 R01      A392          0         0.01591000        12.01000000
   915 lmp_009                 1 R01      A393          0         0.03721000         1.00800000
   916 lmp_004                 1 R01      A394          0         0.02141000        12.01000000
   917 lmp_009                 1 R01      A395          0         0.01911000         1.00800000
   918 lmp_007                 1 R01      A396          0         0.02241000        12.01000000
   919 lmp_009                 1 R01      A397          0         0.03781000         1.00800000
   920 lmp_007                 1 R01      A398          0         0.01411000        12.01000000
   921 lmp_009                 1 R01      A399          0         0.03861000         1.00800000
   922 lmp_004                 1 R01      A39a          0         0.01111000        12.01000000
   923 lmp_009                 1 R01      A39b          0         0.02341000         1.00800000
   924 lmp_004                 1 R01      A39c          0        -0.10289000        12.01000000
   925 lmp_009                 1 R01      A39d          0         0.04701000         1.00800000
   926 lmp_009                 1 R01      A39e          0         0.04701000         1.00800000
   927 lmp_005                 1 R01      A39f          0        -0.03099000        12.01000000
   928 lmp_005                 1 R01      A3a0          0        -0.25069000        12.01000000
   929 lmp_008                 1 R01      A3a1          0         0.17281000         1.00800000
   930 lmp_006                 1 R01      A3a2          0         0.02131000        12.01000000
   931 lmp_005                 1 R01      A3a3          0         0.02031000        12.01000000
   932 lmp_005                 1 R01      A3a4          0        -0.24969000        12.01000000
   933 lmp_008                 1 R01      A3a5          0         0.17861000         1.00800000
   934 lmp_005                 1 R01      A3a6          0        -0.03239000        12.01000000
   935 lmp_007                 1 R01      A3a7          0         0.03221000        12.01000000
   936 lmp_009                 1 R01      A3a8          0         0.02561000         1.00800000
   937 lmp_007                 1 R01      A3a9          0         0.02991000        12.01000000
   938 lmp_009                 1 R01      A3aa          0         0.02761000         1.00800000
   939 lmp_004                 1 R01      A3ab          0         0.05471000        12.01000000
   940 lmp_009                 1 R01      A3ac          0         0.00921000         1.00800000
   941 lmp_007                 1 R01      A3ad          0         0.00911000        12.01000000
   942 lmp_009                 1 R01      A3ae          0         0.03851000         1.00800000
   943 lmp_005                 1 R01      A3af          0        -0.12349000        12.01000000
   944 lmp_005                 1 R01      A3b0          0        -0.12549000        12.01000000
   945 lmp_005                 1 R01      A3b1          0         0.03581000        12.01000000
   946 lmp_003                 1 R01      A3b2          0        -0.11109000        12.01000000
   947 lmp_009                 1 R01      A3b3          0         0.04331000         1.00800000
   948 lmp_009                 1 R01      A3b4          0         0.04331000         1.00800000
   949 lmp_009                 1 R01      A3b5          0         0.04331000         1.00800000
   950 lmp_005                 1 R01      A3b6          0        -0.08649000        12.01000000
   951 lmp_005                 1 R01      A3b7          0        -0.09149000        12.01000000
   952 lmp_005                 1 R01      A3b8          0         0.05181000        12.01000000
   953 lmp_003                 1 R01      A3b9          0        -0.10009000        12.01000000
   954 lmp_009                 1 R01      A3ba          0         0.04551000         1.00800000
   955 lmp_009                 1 R01      A3bb          0         0.04551000         1.00800000
   956 lmp_009                 1 R01      A3bc          0         0.04551000         1.00800000
   957 lmp_007                 1 R01      A3bd          0         0.00531000        12.01000000
   958 lmp_009                 1 R01      A3be          0         0.03971000         1.00800000
   959 lmp_004                 1 R01      A3bf          0         0.05571000        12.01000000
   960 lmp_009                 1 R01      A3c0          0         0.01041000         1.00800000
   961 lmp_004                 1 R01      A3c1          0        -0.21059000        12.01000000
   962 lmp_009                 1 R01      A3c2          0         0.05311000         1.00800000
   963 lmp_009                 1 R01      A3c3          0         0.05311000         1.00800000
   964 lmp_005                 1 R01      A3c4          0        -0.04569000        12.01000000
   965 lmp_005                 1 R01      A3c5          0        -0.20379000        12.01000000
   966 lmp_008                 1 R01      A3c6          0         0.15591000         1.00800000
   967 lmp_003                 1 R01      A3c7          0        -0.10048000        12.01000000
   968 lmp_009                 1 R01      A3c8          0         0.02361000         1.00800000
   969 lmp_009                 1 R01      A3c9          0         0.02361000         1.00800000
   970 lmp_009                 1 R01      A3ca          0         0.02361000         1.00800000
   971 lmp_004                 1 R01      A3cb          0         0.19001000        12.01000000
   972 lmp_003                 1 R01      A3cc          0        -0.17889000        12.01000000
   973 lmp_009                 1 R01      A3cd          0         0.04121000         1.00800000
   974 lmp_009                 1 R01      A3ce          0         0.04121000         1.00800000
   975 lmp_009                 1 R01      A3cf          0         0.04121000         1.00800000
   976 lmp_005                 1 R01      A3d0          0         0.00401000        12.01000000
   977 lmp_006                 1 R01      A3d1          0         0.00111000        12.01000000
   978 lmp_005                 1 R01      A3d2          0        -0.18989000        12.01000000
   979 lmp_008                 1 R01      A3d3          0         0.14431000         1.00800000
   980 lmp_005                 1 R01      A3d4          0        -0.04879000        12.01000000
   981 lmp_007                 1 R01      A3d5          0         0.03141000        12.01000000
   982 lmp_009                 1 R01      A3d6          0         0.03521000         1.00800000
   983 lmp_007                 1 R01      A3d7          0         0.01591000        12.01000000
   984 lmp_009                 1 R01      A3d8          0         0.03721000         1.00800000
   985 lmp_004                 1 R01      A3d9          0         0.02141000        12.01000000
   986 lmp_009                 1 R01      A3da          0         0.01911000         1.00800000
   987 lmp_007                 1 R01      A3db          0         0.02241000        12.01000000
   988 lmp_009                 1 R01      A3dc          0         0.03781000         1.00800000
   989 lmp_007                 1 R01      A3dd          0         0.01411000        12.01000000
   990 lmp_009                 1 R01      A3de          0         0.03861000         1.00800000
   991 lmp_004                 1 R01      A3df          0         0.01111000        12.01000000
   992 lmp_009                 1 R01      A3e0          0         0.02341000         1.00800000
   993 lmp_004                 1 R01      A3e1          0        -0.10289000        12.01000000
   994 lmp_009                 1 R01      A3e2          0         0.04701000         1.00800000
   995 lmp_009                 1 R01      A3e3          0         0.04701000         1.00800000
   996 lmp_005                 1 R01      A3e4          0        -0.03099000        12.01000000
   997 lmp_005                 1 R01      A3e5          0        -0.25069000        12.01000000
   998 lmp_008                 1 R01      A3e6          0         0.17281000         1.00800000
   999 lmp_006                 1 R01      A3e7          0         0.02131000        12.01000000
  1000 lmp_005                 1 R01      A3e8          0         0.02031000        12.01000000
  1001 lmp_005                 1 R01      A3e9          0        -0.24969000        12.01000000
  1002 lmp_008                 1 R01      A3ea          0         0.17861000         1.00800000
  1003 lmp_005                 1 R01      A3eb          0        -0.03239000        12.01000000
  1004 lmp_007                 1 R01      A3ec          0         0.03221000        12.01000000
  1005 lmp_009                 1 R01      A3ed          0         0.02561000         1.00800000
  1006 lmp_007                 1 R01      A3ee          0         0.02991000        12.01000000
  1007 lmp_009                 1 R01      A3ef          0         0.02761000         1.00800000
  1008 lmp_004                 1 R01      A3f0          0         0.05471000        12.01000000
  1009 lmp_009                 1 R01      A3f1          0         0.00921000         1.00800000
  1010 lmp_007                 1 R01      A3f2          0         0.00911000        12.01000000
  1011 lmp_009                 1 R01      A3f3          0         0.03851000         1.00800000
  1012 lmp_005                 1 R01      A3f4          0        -0.12349000        12.01000000
  1013 lmp_005                 1 R01      A3f5          0        -0.12549000        12.01000000
  1014 lmp_005                 1 R01      A3f6          0         0.03581000        12.01000000
  1015 lmp_003                 1 R01      A3f7          0        -0.11109000        12.01000000
  1016 lmp_009                 1 R01      A3f8          0         0.04331000         1.00800000
  1017 lmp_009                 1 R01      A3f9          0         0.04331000         1.00800000
  1018 lmp_009                 1 R01      A3fa          0         0.04331000         1.00800000
  1019 lmp_005                 1 R01      A3fb          0        -0.08649000        12.01000000
  1020 lmp_005                 1 R01      A3fc          0        -0.09149000        12.01000000
  1021 lmp_005                 1 R01      A3fd          0         0.05181000        12.01000000
  1022 lmp_003                 1 R01      A3fe          0        -0.10009000        12.01000000
  1023 lmp_009                 1 R01      A3ff          0         0.04551000         1.00800000
  1024 lmp_009                 1 R01      A400          0         0.04551000         1.00800000
  1025 lmp_009                 1 R01      A401          0         0.04551000         1.00800000
  1026 lmp_007                 1 R01      A402          0         0.00531000        12.01000000
  1027 lmp_009                 1 R01      A403          0         0.03971000         1.00800000
  1028 lmp_004                 1 R01      A404          0         0.05571000        12.01000000
  1029 lmp_009                 1 R01      A405          0         0.01041000         1.00800000
  1030 lmp_004                 1 R01      A406          0        -0.21059000        12.01000000
  1031 lmp_009                 1 R01      A407          0         0.05311000         1.00800000
  1032 lmp_009                 1 R01      A408          0         0.05311000         1.00800000
  1033 lmp_005                 1 R01      A409          0        -0.04569000        12.01000000
  1034 lmp_005                 1 R01      A40a          0        -0.20379000        12.01000000
  1035 lmp_008                 1 R01      A40b          0         0.15591000         1.00800000
  1036 lmp_003                 1 R01      A40c          0        -0.10048000        12.01000000
  1037 lmp_009                 1 R01      A40d          0         0.02361000         1.00800000
  1038 lmp_009                 1 R01      A40e          0         0.02361000         1.00800000
  1039 lmp_009                 1 R01      A40f          0         0.02361000         1.00800000
  1040 lmp_004                 1 R01      A410          0         0.19001000        12.01000000
  1041 lmp_003                 1 R01      A411          0        -0.17889000        12.01000000
  1042 lmp_009                 1 R01      A412          0         0.04121000         1.00800000
  1043 lmp_009                 1 R01      A413          0         0.04121000         1.00800000
  1044 lmp_009                 1 R01      A414          0         0.04121000         1.00800000
  1045 lmp_005                 1 R01      A415          0         0.00401000        12.01000000
  1046 lmp_006                 1 R01      A416          0         0.00111000        12.01000000
  1047 lmp_005                 1 R01      A417          0        -0.18989000        12.01000000
  1048 lmp_008                 1 R01      A418          0         0.14431000         1.00800000
  1049 lmp_005                 1 R01      A419          0        -0.04879000        12.01000000
  1050 lmp_007                 1 R01      A41a          0         0.03141000        12.01000000
  1051 lmp_009                 1 R01      A41b          0         0.03521000         1.00800000
  1052 lmp_007                 1 R01      A41c          0         0.01591000        12.01000000
  1053 lmp_009                 1 R01      A41d          0         0.03721000         1.00800000
  1054 lmp_004                 1 R01      A41e          0         0.02141000        12.01000000
  1055 lmp_009                 1 R01      A41f          0         0.01911000         1.00800000
  1056 lmp_007                 1 R01      A420          0         0.02241000        12.01000000
  1057 lmp_009                 1 R01      A421          0         0.03781000         1.00800000
  1058 lmp_007                 1 R01      A422          0         0.01411000        12.01000000
  1059 lmp_009                 1 R01      A423          0         0.03861000         1.00800000
  1060 lmp_004                 1 R01      A424          0         0.01111000        12.01000000
  1061 lmp_009                 1 R01      A425          0         0.02341000         1.00800000
  1062 lmp_004                 1 R01      A426          0        -0.10289000        12.01000000
  1063 lmp_009                 1 R01      A427          0         0.04701000         1.00800000
  1064 lmp_009                 1 R01      A428          0         0.04701000         1.00800000
  1065 lmp_005                 1 R01      A429          0        -0.03099000        12.01000000
  1066 lmp_005                 1 R01      A42a          0        -0.25069000        12.01000000
  1067 lmp_008                 1 R01      A42b          0         0.17281000         1.00800000
  1068 lmp_006                 1 R01      A42c          0         0.02131000        12.01000000
  1069 lmp_005                 1 R01      A42d          0         0.02031000        12.01000000
  1070 lmp_005                 1 R01      A42e          0        -0.24969000        12.01000000
  1071 lmp_008                 1 R01      A42f          0         0.17861000         1.00800000
  1072 lmp_005                 1 R01      A430          0        -0.03239000        12.01000000
  1073 lmp_007                 1 R01      A431          0         0.03221000        12.01000000
  1074 lmp_009                 1 R01      A432          0         0.02561000         1.00800000
  1075 lmp_007                 1 R01      A433          0         0.02991000        12.01000000
  1076 lmp_009                 1 R01      A434          0         0.02761000         1.00800000
  1077 lmp_004                 1 R01      A435          0         0.05471000        12.01000000
  1078 lmp_009                 1 R01      A436          0         0.00921000         1.00800000
  1079 lmp_007                 1 R01      A437          0         0.00911000        12.01000000
  1080 lmp_009                 1 R01      A438          0         0.03851000         1.00800000
  1081 lmp_005                 1 R01      A439          0        -0.12349000        12.01000000
  1082 lmp_005                 1 R01      A43a          0        -0.12549000        12.01000000
  1083 lmp_005                 1 R01      A43b          0         0.03581000        12.01000000
  1084 lmp_003                 1 R01      A43c          0        -0.11109000        12.01000000
  1085 lmp_009                 1 R01      A43d          0         0.04331000         1.00800000
  1086 lmp_009                 1 R01      A43e          0         0.04331000         1.00800000
  1087 lmp_009                 1 R01      A43f          0         0.04331000         1.00800000
  1088 lmp_005                 1 R01      A440          0        -0.08649000        12.01000000
  1089 lmp_005                 1 R01      A441          0        -0.09149000        12.01000000
  1090 lmp_005                 1 R01      A442          0         0.05181000        12.01000000
  1091 lmp_003                 1 R01      A443          0        -0.10009000        12.01000000
  1092 lmp_009                 1 R01      A444          0         0.04551000         1.00800000
  1093 lmp_009                 1 R01      A445          0         0.04551000         1.00800000
  1094 lmp_009                 1 R01      A446          0         0.04551000         1.00800000
  1095 lmp_007                 1 R01      A447          0         0.00531000        12.01000000
  1096 lmp_009                 1 R01      A448          0         0.03971000         1.00800000
  1097 lmp_004                 1 R01      A449          0         0.05571000        12.01000000
  1098 lmp_009                 1 R01      A44a          0         0.01041000         1.00800000
  1099 lmp_004                 1 R01      A44b          0        -0.21059000        12.01000000
  1100 lmp_009                 1 R01      A44c          0         0.05311000         1.00800000
  1101 lmp_009                 1 R01      A44d          0         0.05311000         1.00800000
  1102 lmp_005                 1 R01      A44e          0        -0.04569000        12.01000000
  1103 lmp_005                 1 R01      A44f          0        -0.20379000        12.01000000
  1104 lmp_008                 1 R01      A450          0         0.15591000         1.00800000
  1105 lmp_003                 1 R01      A451          0        -0.10048000        12.01000000
  1106 lmp_009                 1 R01      A452          0         0.02361000         1.00800000
  1107 lmp_009                 1 R01      A453          0         0.02361000         1.00800000
  1108 lmp_009                 1 R01      A454          0         0.02361000         1.00800000
  1109 lmp_004                 1 R01      A455          0         0.19001000        12.01000000
  1110 lmp_003                 1 R01      A456          0        -0.17889000        12.01000000
  1111 lmp_009                 1 R01      A457          0         0.04121000         1.00800000
  1112 lmp_009                 1 R01      A458          0         0.04121000         1.00800000
  1113 lmp_009                 1 R01      A459          0         0.04121000         1.00800000
  1114 lmp_005                 1 R01      A45a          0         0.00401000        12.01000000
  1115 lmp_006                 1 R01      A45b          0         0.00111000        12.01000000
  1116 lmp_005                 1 R01      A45c          0        -0.18989000        12.01000000
  1117 lmp_008                 1 R01      A45d          0         0.14431000         1.00800000
  1118 lmp_005                 1 R01      A45e          0        -0.04879000        12.01000000
  1119 lmp_007                 1 R01      A45f          0         0.03141000        12.01000000
  1120 lmp_009                 1 R01      A460          0         0.03521000         1.00800000
  1121 lmp_007                 1 R01      A461          0         0.01591000        12.01000000
  1122 lmp_009                 1 R01      A462          0         0.03721000         1.00800000
  1123 lmp_004                 1 R01      A463          0         0.02141000        12.01000000
  1124 lmp_009                 1 R01      A464          0         0.01911000         1.00800000
  1125 lmp_007                 1 R01      A465          0         0.02241000        12.01000000
  1126 lmp_009                 1 R01      A466          0         0.03781000         1.00800000
  1127 lmp_007                 1 R01      A467          0         0.01411000        12.01000000
  1128 lmp_009                 1 R01      A468          0         0.03861000         1.00800000
  1129 lmp_004                 1 R01      A469          0         0.01111000        12.01000000
  1130 lmp_009                 1 R01      A46a          0         0.02341000         1.00800000
  1131 lmp_004                 1 R01      A46b          0        -0.10289000        12.01000000
  1132 lmp_009                 1 R01      A46c          0         0.04701000         1.00800000
  1133 lmp_009                 1 R01      A46d          0         0.04701000         1.00800000
  1134 lmp_005                 1 R01      A46e          0        -0.03099000        12.01000000
  1135 lmp_005                 1 R01      A46f          0        -0.25069000        12.01000000
  1136 lmp_008                 1 R01      A470          0         0.17281000         1.00800000
  1137 lmp_006                 1 R01      A471          0         0.02131000        12.01000000
  1138 lmp_005                 1 R01      A472          0         0.02031000        12.01000000
  1139 lmp_005                 1 R01      A473          0        -0.24969000        12.01000000
  1140 lmp_008                 1 R01      A474          0         0.17861000         1.00800000
  1141 lmp_005                 1 R01      A475          0        -0.03239000        12.01000000
  1142 lmp_007                 1 R01      A476          0         0.03221000        12.01000000
  1143 lmp_009                 1 R01      A477          0         0.02561000         1.00800000
  1144 lmp_007                 1 R01      A478          0         0.02991000        12.01000000
  1145 lmp_009                 1 R01      A479          0         0.02761000         1.00800000
  1146 lmp_004                 1 R01      A47a          0         0.05471000        12.01000000
  1147 lmp_009                 1 R01      A47b          0         0.00921000         1.00800000
  1148 lmp_007                 1 R01      A47c          0         0.00911000        12.01000000
  1149 lmp_009                 1 R01      A47d          0         0.03851000         1.00800000
  1150 lmp_005                 1 R01      A47e          0        -0.12349000        12.01000000
  1151 lmp_005                 1 R01      A47f          0        -0.12549000        12.01000000
  1152 lmp_005                 1 R01      A480          0         0.03581000        12.01000000
  1153 lmp_003                 1 R01      A481          0        -0.11109000        12.01000000
  1154 lmp_009                 1 R01      A482          0         0.04331000         1.00800000
  1155 lmp_009                 1 R01      A483          0         0.04331000         1.00800000
  1156 lmp_009                 1 R01      A484          0         0.04331000         1.00800000
  1157 lmp_005                 1 R01      A485          0        -0.08649000        12.01000000
  1158 lmp_005                 1 R01      A486          0        -0.09149000        12.01000000
  1159 lmp_005                 1 R01      A487          0         0.05181000        12.01000000
  1160 lmp_003                 1 R01      A488          0        -0.10009000        12.01000000
  1161 lmp_009                 1 R01      A489          0         0.04551000         1.00800000
  1162 lmp_009                 1 R01      A48a          0         0.04551000         1.00800000
  1163 lmp_009                 1 R01      A48b          0         0.04551000         1.00800000
  1164 lmp_007                 1 R01      A48c          0         0.00531000        12.01000000
  1165 lmp_009                 1 R01      A48d          0         0.03971000         1.00800000
  1166 lmp_004                 1 R01      A48e          0         0.05571000        12.01000000
  1167 lmp_009                 1 R01      A48f          0         0.01041000         1.00800000
  1168 lmp_004                 1 R01      A490          0        -0.21059000        12.01000000
  1169 lmp_009                 1 R01      A491          0         0.05311000         1.00800000
  1170 lmp_009                 1 R01      A492          0         0.05311000         1.00800000
  1171 lmp_005                 1 R01      A493          0        -0.04569000        12.01000000
  1172 lmp_005                 1 R01      A494          0        -0.20379000        12.01000000
  1173 lmp_008                 1 R01      A495          0         0.15591000         1.00800000
  1174 lmp_003                 1 R01      A496          0        -0.10048000        12.01000000
  1175 lmp_009                 1 R01      A497          0         0.02361000         1.00800000
  1176 lmp_009                 1 R01      A498          0         0.02361000         1.00800000
  1177 lmp_009                 1 R01      A499          0         0.02361000         1.00800000
  1178 lmp_004                 1 R01      A49a          0         0.19001000        12.01000000
  1179 lmp_003                 1 R01      A49b          0        -0.17889000        12.01000000
  1180 lmp_009                 1 R01      A49c          0         0.04121000         1.00800000
  1181 lmp_009                 1 R01      A49d          0         0.04121000         1.00800000
  1182 lmp_009                 1 R01      A49e          0         0.04121000         1.00800000
  1183 lmp_005                 1 R01      A49f          0         0.00401000        12.01000000
  1184 lmp_006                 1 R01      A4a0          0         0.00111000        12.01000000
  1185 lmp_005                 1 R01      A4a1          0        -0.18989000        12.01000000
  1186 lmp_008                 1 R01      A4a2          0         0.14431000         1.00800000
  1187 lmp_005                 1 R01      A4a3          0        -0.04879000        12.01000000
  1188 lmp_007                 1 R01      A4a4          0         0.03141000        12.01000000
  1189 lmp_009                 1 R01      A4a5          0         0.03521000         1.00800000
  1190 lmp_007                 1 R01      A4a6          0         0.01591000        12.01000000
  1191 lmp_009                 1 R01      A4a7          0         0.03721000         1.00800000
  1192 lmp_004                 1 R01      A4a8          0         0.02141000        12.01000000
  1193 lmp_009                 1 R01      A4a9          0         0.01911000         1.00800000
  1194 lmp_007                 1 R01      A4aa          0         0.02241000        12.01000000
  1195 lmp_009                 1 R01      A4ab          0         0.03781000         1.00800000
  1196 lmp_007                 1 R01      A4ac          0         0.01411000        12.01000000
  1197 lmp_009                 1 R01      A4ad          0         0.03861000         1.00800000
  1198 lmp_004                 1 R01      A4ae          0         0.01111000        12.01000000
  1199 lmp_009                 1 R01      A4af          0         0.02341000         1.00800000
  1200 lmp_004                 1 R01      A4b0          0        -0.10289000        12.01000000
  1201 lmp_009                 1 R01      A4b1          0         0.04701000         1.00800000
  1202 lmp_009                 1 R01      A4b2          0         0.04701000         1.00800000
  1203 lmp_005                 1 R01      A4b3          0        -0.03099000        12.01000000
  1204 lmp_005                 1 R01      A4b4          0        -0.25069000        12.01000000
  1205 lmp_008                 1 R01      A4b5          0         0.17281000         1.00800000
  1206 lmp_006                 1 R01      A4b6          0         0.02131000        12.01000000
  1207 lmp_005                 1 R01      A4b7          0         0.02031000        12.01000000
  1208 lmp_005                 1 R01      A4b8          0        -0.24969000        12.01000000
  1209 lmp_008                 1 R01      A4b9          0         0.17861000         1.00800000
  1210 lmp_005                 1 R01      A4ba          0        -0.03239000        12.01000000
  1211 lmp_007                 1 R01      A4bb          0         0.03221000        12.01000000
  1212 lmp_009                 1 R01      A4bc          0         0.02561000         1.00800000
  1213 lmp_007                 1 R01      A4bd          0         0.02991000        12.01000000
  1214 lmp_009                 1 R01      A4be          0         0.02761000         1.00800000
  1215 lmp_004                 1 R01      A4bf          0         0.05471000        12.01000000
  1216 lmp_009                 1 R01      A4c0          0         0.00921000         1.00800000
  1217 lmp_007                 1 R01      A4c1          0         0.00911000        12.01000000
  1218 lmp_009                 1 R01      A4c2          0         0.03851000         1.00800000
  1219 lmp_005                 1 R01      A4c3          0        -0.12349000        12.01000000
  1220 lmp_005                 1 R01      A4c4          0        -0.12549000        12.01000000
  1221 lmp_005                 1 R01      A4c5          0         0.03581000        12.01000000
  1222 lmp_003                 1 R01      A4c6          0        -0.11109000        12.01000000
  1223 lmp_009                 1 R01      A4c7          0         0.04331000         1.00800000
  1224 lmp_009                 1 R01      A4c8          0         0.04331000         1.00800000
  1225 lmp_009                 1 R01      A4c9          0         0.04331000         1.00800000
  1226 lmp_005                 1 R01      A4ca          0        -0.08649000        12.01000000
  1227 lmp_005                 1 R01      A4cb          0        -0.09149000        12.01000000
  1228 lmp_005                 1 R01      A4cc          0         0.05181000        12.01000000
  1229 lmp_003                 1 R01      A4cd          0        -0.10009000        12.01000000
  1230 lmp_009                 1 R01      A4ce          0         0.04551000         1.00800000
  1231 lmp_009                 1 R01      A4cf          0         0.04551000         1.00800000
  1232 lmp_009                 1 R01      A4d0          0         0.04551000         1.00800000
  1233 lmp_007                 1 R01      A4d1          0         0.00531000        12.01000000
  1234 lmp_009                 1 R01      A4d2          0         0.03971000         1.00800000
  1235 lmp_004                 1 R01      A4d3          0         0.05571000        12.01000000
  1236 lmp_009                 1 R01      A4d4          0         0.01041000         1.00800000
  1237 lmp_004                 1 R01      A4d5          0        -0.21059000        12.01000000
  1238 lmp_009                 1 R01      A4d6          0         0.05311000         1.00800000
  1239 lmp_009                 1 R01      A4d7          0         0.05311000         1.00800000
  1240 lmp_005                 1 R01      A4d8          0        -0.04569000        12.01000000
  1241 lmp_005                 1 R01      A4d9          0        -0.20379000        12.01000000
  1242 lmp_008                 1 R01      A4da          0         0.15591000         1.00800000
  1243 lmp_003                 1 R01      A4db          0        -0.10048000        12.01000000
  1244 lmp_009                 1 R01      A4dc          0         0.02361000         1.00800000
  1245 lmp_009                 1 R01      A4dd          0         0.02361000         1.00800000
  1246 lmp_009                 1 R01      A4de          0         0.02361000         1.00800000
  1247 lmp_004                 1 R01      A4df          0         0.19001000        12.01000000
  1248 lmp_003                 1 R01      A4e0          0        -0.17889000        12.01000000
  1249 lmp_009                 1 R01      A4e1          0         0.04121000         1.00800000
  1250 lmp_009                 1 R01      A4e2          0         0.04121000         1.00800000
  1251 lmp_009                 1 R01      A4e3          0         0.04121000         1.00800000
  1252 lmp_005                 1 R01      A4e4          0         0.00401000        12.01000000
  1253 lmp_006                 1 R01      A4e5          0         0.00111000        12.01000000
  1254 lmp_005                 1 R01      A4e6          0        -0.18989000        12.01000000
  1255 lmp_008                 1 R01      A4e7          0         0.14431000         1.00800000
  1256 lmp_005                 1 R01      A4e8          0        -0.04879000        12.01000000
  1257 lmp_007                 1 R01      A4e9          0         0.03141000        12.01000000
  1258 lmp_009                 1 R01      A4ea          0         0.03521000         1.00800000
  1259 lmp_007                 1 R01      A4eb          0         0.01591000        12.01000000
  1260 lmp_009                 1 R01      A4ec          0         0.03721000         1.00800000
  1261 lmp_004                 1 R01      A4ed          0         0.02141000        12.01000000
  1262 lmp_009                 1 R01      A4ee          0         0.01911000         1.00800000
  1263 lmp_007                 1 R01      A4ef          0         0.02241000        12.01000000
  1264 lmp_009                 1 R01      A4f0          0         0.03781000         1.00800000
  1265 lmp_007                 1 R01      A4f1          0         0.01411000        12.01000000
  1266 lmp_009                 1 R01      A4f2          0         0.03861000         1.00800000
  1267 lmp_004                 1 R01      A4f3          0         0.01111000        12.01000000
  1268 lmp_009                 1 R01      A4f4          0         0.02341000         1.00800000
  1269 lmp_004                 1 R01      A4f5          0        -0.10289000        12.01000000
  1270 lmp_009                 1 R01      A4f6          0         0.04701000         1.00800000
  1271 lmp_009                 1 R01      A4f7          0         0.04701000         1.00800000
  1272 lmp_005                 1 R01      A4f8          0        -0.03099000        12.01000000
  1273 lmp_005                 1 R01      A4f9          0        -0.25069000        12.01000000
  1274 lmp_008                 1 R01      A4fa          0         0.17281000         1.00800000
  1275 lmp_006                 1 R01      A4fb          0         0.02131000        12.01000000
  1276 lmp_005                 1 R01      A4fc          0         0.02031000        12.01000000
  1277 lmp_005                 1 R01      A4fd          0        -0.24969000        12.01000000
  1278 lmp_008                 1 R01      A4fe          0         0.17861000         1.00800000
  1279 lmp_005                 1 R01      A4ff          0        -0.03239000        12.01000000
  1280 lmp_007                 1 R01      A500          0         0.03221000        12.01000000
  1281 lmp_009                 1 R01      A501          0         0.02561000         1.00800000
  1282 lmp_007                 1 R01      A502          0         0.02991000        12.01000000
  1283 lmp_009                 1 R01      A503          0         0.02761000         1.00800000
  1284 lmp_004                 1 R01      A504          0         0.05471000        12.01000000
  1285 lmp_009                 1 R01      A505          0         0.00921000         1.00800000
  1286 lmp_007                 1 R01      A506          0         0.00911000        12.01000000
  1287 lmp_009                 1 R01      A507          0         0.03851000         1.00800000
  1288 lmp_005                 1 R01      A508          0        -0.12349000        12.01000000
  1289 lmp_005                 1 R01      A509          0        -0.12549000        12.01000000
  1290 lmp_005                 1 R01      A50a          0         0.03581000        12.01000000
  1291 lmp_003                 1 R01      A50b          0        -0.11109000        12.01000000
  1292 lmp_009                 1 R01      A50c          0         0.04331000         1.00800000
  1293 lmp_009                 1 R01      A50d          0         0.04331000         1.00800000
  1294 lmp_009                 1 R01      A50e          0         0.04331000         1.00800000
  1295 lmp_005                 1 R01      A50f          0        -0.08649000        12.01000000
  1296 lmp_005                 1 R01      A510          0        -0.09149000        12.01000000
  1297 lmp_005                 1 R01      A511          0         0.05181000        12.01000000
  1298 lmp_003                 1 R01      A512          0        -0.10009000        12.01000000
  1299 lmp_009                 1 R01      A513          0         0.04551000         1.00800000
  1300 lmp_009                 1 R01      A514          0         0.04551000         1.00800000
  1301 lmp_009                 1 R01      A515          0         0.04551000         1.00800000
  1302 lmp_007                 1 R01      A516          0         0.00531000        12.01000000
  1303 lmp_009                 1 R01      A517          0         0.03971000         1.00800000
  1304 lmp_004                 1 R01      A518          0         0.05571000        12.01000000
  1305 lmp_009                 1 R01      A519          0         0.01041000         1.00800000
  1306 lmp_004                 1 R01      A51a          0        -0.21059000        12.01000000
  1307 lmp_009                 1 R01      A51b          0         0.05311000         1.00800000
  1308 lmp_009                 1 R01      A51c          0         0.05311000         1.00800000
  1309 lmp_005                 1 R01      A51d          0        -0.04569000        12.01000000
  1310 lmp_005                 1 R01      A51e          0        -0.20379000        12.01000000
  1311 lmp_008                 1 R01      A51f          0         0.15591000         1.00800000
  1312 lmp_003                 1 R01      A520          0        -0.10048000        12.01000000
  1313 lmp_009                 1 R01      A521          0         0.02361000         1.00800000
  1314 lmp_009                 1 R01      A522          0         0.02361000         1.00800000
  1315 lmp_009                 1 R01      A523          0         0.02361000         1.00800000
  1316 lmp_004                 1 R01      A524          0         0.19001000        12.01000000
  1317 lmp_003                 1 R01      A525          0        -0.17889000        12.01000000
  1318 lmp_009                 1 R01      A526          0         0.04121000         1.00800000
  1319 lmp_009                 1 R01      A527          0         0.04121000         1.00800000
  1320 lmp_009                 1 R01      A528          0         0.04121000         1.00800000
  1321 lmp_005                 1 R01      A529          0         0.00401000        12.01000000
  1322 lmp_006                 1 R01      A52a          0         0.00111000        12.01000000
  1323 lmp_005                 1 R01      A52b          0        -0.18989000        12.01000000
  1324 lmp_008                 1 R01      A52c          0         0.14431000         1.00800000
  1325 lmp_005                 1 R01      A52d          0        -0.04879000        12.01000000
  1326 lmp_007                 1 R01      A52e          0         0.03141000        12.01000000
  1327 lmp_009                 1 R01      A52f          0         0.03521000         1.00800000
  1328 lmp_007                 1 R01      A530          0         0.01591000        12.01000000
  1329 lmp_009                 1 R01      A531          0         0.03721000         1.00800000
  1330 lmp_004                 1 R01      A532          0         0.02141000        12.01000000
  1331 lmp_009                 1 R01      A533          0         0.01911000         1.00800000
  1332 lmp_007                 1 R01      A534          0         0.02241000        12.01000000
  1333 lmp_009                 1 R01      A535          0         0.03781000         1.00800000
  1334 lmp_007                 1 R01      A536          0         0.01411000        12.01000000
  1335 lmp_009                 1 R01      A537          0         0.03861000         1.00800000
  1336 lmp_004                 1 R01      A538          0         0.01111000        12.01000000
  1337 lmp_009                 1 R01      A539          0         0.02341000         1.00800000
  1338 lmp_004                 1 R01      A53a          0        -0.10289000        12.01000000
  1339 lmp_009                 1 R01      A53b          0         0.04701000         1.00800000
  1340 lmp_009                 1 R01      A53c          0         0.04701000         1.00800000
  1341 lmp_005                 1 R01      A53d          0        -0.03099000        12.01000000
  1342 lmp_005                 1 R01      A53e          0        -0.25069000        12.01000000
  1343 lmp_008                 1 R01      A53f          0         0.17281000         1.00800000
  1344 lmp_006                 1 R01      A540          0         0.02131000        12.01000000
  1345 lmp_005                 1 R01      A541          0         0.02031000        12.01000000
  1346 lmp_005                 1 R01      A542          0        -0.24969000        12.01000000
  1347 lmp_008                 1 R01      A543          0         0.17861000         1.00800000
  1348 lmp_005                 1 R01      A544          0        -0.03239000        12.01000000
  1349 lmp_007                 1 R01      A545          0         0.03221000        12.01000000
  1350 lmp_009                 1 R01      A546          0         0.02561000         1.00800000
  1351 lmp_007                 1 R01      A547          0         0.02991000        12.01000000
  1352 lmp_009                 1 R01      A548          0         0.02761000         1.00800000
  1353 lmp_004                 1 R01      A549          0         0.05471000        12.01000000
  1354 lmp_009                 1 R01      A54a          0         0.00921000         1.00800000
  1355 lmp_007                 1 R01      A54b          0         0.00911000        12.01000000
  1356 lmp_009                 1 R01      A54c          0         0.03851000         1.00800000
  1357 lmp_005                 1 R01      A54d          0        -0.12349000        12.01000000
  1358 lmp_005                 1 R01      A54e          0        -0.12549000        12.01000000
  1359 lmp_005                 1 R01      A54f          0         0.03581000        12.01000000
  1360 lmp_003                 1 R01      A550          0        -0.11109000        12.01000000
  1361 lmp_009                 1 R01      A551          0         0.04331000         1.00800000
  1362 lmp_009                 1 R01      A552          0         0.04331000         1.00800000
  1363 lmp_009                 1 R01      A553          0         0.04331000         1.00800000
  1364 lmp_005                 1 R01      A554          0        -0.08649000        12.01000000
  1365 lmp_005                 1 R01      A555          0        -0.09149000        12.01000000
  1366 lmp_005                 1 R01      A556          0         0.05181000        12.01000000
  1367 lmp_003                 1 R01      A557          0        -0.10009000        12.01000000
  1368 lmp_009                 1 R01      A558          0         0.04551000         1.00800000
  1369 lmp_009                 1 R01      A559          0         0.04551000         1.00800000
  1370 lmp_009                 1 R01      A55a          0         0.04551000         1.00800000
  1371 lmp_007                 1 R01      A55b          0         0.00531000        12.01000000
  1372 lmp_009                 1 R01      A55c          0         0.03971000         1.00800000
  1373 lmp_004                 1 R01      A55d          0         0.05571000        12.01000000
  1374 lmp_009                 1 R01      A55e          0         0.01041000         1.00800000
  1375 lmp_004                 1 R01      A55f          0        -0.21059000        12.01000000
  1376 lmp_009                 1 R01      A560          0         0.05311000         1.00800000
  1377 lmp_009                 1 R01      A561          0         0.05311000         1.00800000
  1378 lmp_005                 1 R01      A562          0        -0.04569000        12.01000000
  1379 lmp_005                 1 R01      A563          0        -0.20379000        12.01000000
  1380 lmp_008                 1 R01      A564          0         0.15591000         1.00800000
  1381 lmp_003                 1 R01      A565          0        -0.10048000        12.01000000
  1382 lmp_009                 1 R01      A566          0         0.02361000         1.00800000
  1383 lmp_009                 1 R01      A567          0         0.02361000         1.00800000
  1384 lmp_009                 1 R01      A568          0         0.02361000         1.00800000
  1385 lmp_004                 1 R01      A569          0         0.19001000        12.01000000
  1386 lmp_003                 1 R01      A56a          0        -0.17889000        12.01000000
  1387 lmp_009                 1 R01      A56b          0         0.04121000         1.00800000
  1388 lmp_009                 1 R01      A56c          0         0.04121000         1.00800000
  1389 lmp_009                 1 R01      A56d          0         0.04121000         1.00800000
  1390 lmp_005                 1 R01      A56e          0         0.00401000        12.01000000
  1391 lmp_006                 1 R01      A56f          0         0.00111000        12.01000000
  1392 lmp_005                 1 R01      A570          0        -0.18989000        12.01000000
  1393 lmp_008                 1 R01      A571          0         0.14431000         1.00800000
  1394 lmp_005                 1 R01      A572          0        -0.04879000        12.01000000
  1395 lmp_007                 1 R01      A573          0         0.03141000        12.01000000
  1396 lmp_009                 1 R01      A574          0         0.03521000         1.00800000
  1397 lmp_007                 1 R01      A575          0         0.01591000        12.01000000
  1398 lmp_009                 1 R01      A576          0         0.03721000         1.00800000
  1399 lmp_004                 1 R01      A577          0         0.02141000        12.01000000
  1400 lmp_009                 1 R01      A578          0         0.01911000         1.00800000
  1401 lmp_007                 1 R01      A579          0         0.02241000        12.01000000
  1402 lmp_009                 1 R01      A57a          0         0.03781000         1.00800000
  1403 lmp_007                 1 R01      A57b          0         0.01411000        12.01000000
  1404 lmp_009                 1 R01      A57c          0         0.03861000         1.00800000
  1405 lmp_004                 1 R01      A57d          0         0.01111000        12.01000000
  1406 lmp_009                 1 R01      A57e          0         0.02341000         1.00800000
  1407 lmp_004                 1 R01      A57f          0        -0.10289000        12.01000000
  1408 lmp_009                 1 R01      A580          0         0.04701000         1.00800000
  1409 lmp_009                 1 R01      A581          0         0.04701000         1.00800000
  1410 lmp_005                 1 R01      A582          0        -0.03099000        12.01000000
  1411 lmp_005                 1 R01      A583          0        -0.25069000        12.01000000
  1412 lmp_008                 1 R01      A584          0         0.17281000         1.00800000
  1413 lmp_006                 1 R01      A585          0         0.02131000        12.01000000
  1414 lmp_005                 1 R01      A586          0         0.02031000        12.01000000
  1415 lmp_005                 1 R01      A587          0        -0.24969000        12.01000000
  1416 lmp_008                 1 R01      A588          0         0.17861000         1.00800000
  1417 lmp_005                 1 R01      A589          0        -0.03239000        12.01000000
  1418 lmp_007                 1 R01      A58a          0         0.03221000        12.01000000
  1419 lmp_009                 1 R01      A58b          0         0.02561000         1.00800000
  1420 lmp_007                 1 R01      A58c          0         0.02991000        12.01000000
  1421 lmp_009                 1 R01      A58d          0         0.02761000         1.00800000
  1422 lmp_004                 1 R01      A58e          0         0.05471000        12.01000000
  1423 lmp_009                 1 R01      A58f          0         0.00921000         1.00800000
  1424 lmp_007                 1 R01      A590          0         0.00911000        12.01000000
  1425 lmp_009                 1 R01      A591          0         0.03851000         1.00800000
  1426 lmp_005                 1 R01      A592          0        -0.12349000        12.01000000
  1427 lmp_005                 1 R01      A593          0        -0.12549000        12.01000000
  1428 lmp_005                 1 R01      A594          0         0.03581000        12.01000000
  1429 lmp_003                 1 R01      A595          0        -0.11109000        12.01000000
  1430 lmp_009                 1 R01      A596          0         0.04331000         1.00800000
  1431 lmp_009                 1 R01      A597          0         0.04331000         1.00800000
  1432 lmp_009                 1 R01      A598          0         0.04331000         1.00800000
  1433 lmp_005                 1 R01      A599          0        -0.08649000        12.01000000
  1434 lmp_005                 1 R01      A59a          0        -0.09149000        12.01000000
  1435 lmp_005                 1 R01      A59b          0         0.05181000        12.01000000
  1436 lmp_003                 1 R01      A59c          0        -0.10009000        12.01000000
  1437 lmp_009                 1 R01      A59d          0         0.04551000         1.00800000
  1438 lmp_009                 1 R01      A59e          0         0.04551000         1.00800000
  1439 lmp_009                 1 R01      A59f          0         0.04551000         1.00800000
  1440 lmp_007                 1 R01      A5a0          0         0.00531000        12.01000000
  1441 lmp_009                 1 R01      A5a1          0         0.03971000         1.00800000
  1442 lmp_004                 1 R01      A5a2          0         0.05571000        12.01000000
  1443 lmp_009                 1 R01      A5a3          0         0.01041000         1.00800000
  1444 lmp_004                 1 R01      A5a4          0        -0.21059000        12.01000000
  1445 lmp_009                 1 R01      A5a5          0         0.05311000         1.00800000
  1446 lmp_009                 1 R01      A5a6          0         0.05311000         1.00800000
  1447 lmp_005                 1 R01      A5a7          0        -0.04569000        12.01000000
  1448 lmp_005                 1 R01      A5a8          0        -0.20379000        12.01000000
  1449 lmp_008                 1 R01      A5a9          0         0.15591000         1.00800000
  1450 lmp_003                 1 R01      A5aa          0        -0.10048000        12.01000000
  1451 lmp_009                 1 R01      A5ab          0         0.02361000         1.00800000
  1452 lmp_009                 1 R01      A5ac          0         0.02361000         1.00800000
  1453 lmp_009                 1 R01      A5ad          0         0.02361000         1.00800000
  1454 lmp_004                 1 R01      A5ae          0         0.19001000        12.01000000
  1455 lmp_003                 1 R01      A5af          0        -0.17889000        12.01000000
  1456 lmp_009                 1 R01      A5b0          0         0.04121000         1.00800000
  1457 lmp_009                 1 R01      A5b1          0         0.04121000         1.00800000
  1458 lmp_009                 1 R01      A5b2          0         0.04121000         1.00800000
  1459 lmp_005                 1 R01      A5b3          0         0.00401000        12.01000000
  1460 lmp_006                 1 R01      A5b4          0         0.00111000        12.01000000
  1461 lmp_005                 1 R01      A5b5          0        -0.18989000        12.01000000
  1462 lmp_008                 1 R01      A5b6          0         0.14431000         1.00800000
  1463 lmp_005                 1 R01      A5b7          0        -0.04879000        12.01000000
  1464 lmp_007                 1 R01      A5b8          0         0.03141000        12.01000000
  1465 lmp_009                 1 R01      A5b9          0         0.03521000         1.00800000
  1466 lmp_007                 1 R01      A5ba          0         0.01591000        12.01000000
  1467 lmp_009                 1 R01      A5bb          0         0.03721000         1.00800000
  1468 lmp_004                 1 R01      A5bc          0         0.02141000        12.01000000
  1469 lmp_009                 1 R01      A5bd          0         0.01911000         1.00800000
  1470 lmp_007                 1 R01      A5be          0         0.02241000        12.01000000
  1471 lmp_009                 1 R01      A5bf          0         0.03781000         1.00800000
  1472 lmp_007                 1 R01      A5c0          0         0.01411000        12.01000000
  1473 lmp_009                 1 R01      A5c1          0         0.03861000         1.00800000
  1474 lmp_004                 1 R01      A5c2          0         0.01111000        12.01000000
  1475 lmp_009                 1 R01      A5c3          0         0.02341000         1.00800000
  1476 lmp_004                 1 R01      A5c4          0        -0.10289000        12.01000000
  1477 lmp_009                 1 R01      A5c5          0         0.04701000         1.00800000
  1478 lmp_009                 1 R01      A5c6          0         0.04701000         1.00800000
  1479 lmp_005                 1 R01      A5c7          0        -0.03099000        12.01000000
  1480 lmp_005                 1 R01      A5c8          0        -0.25069000        12.01000000
  1481 lmp_008                 1 R01      A5c9          0         0.17281000         1.00800000
  1482 lmp_006                 1 R01      A5ca          0         0.02131000        12.01000000
  1483 lmp_005                 1 R01      A5cb          0         0.02031000        12.01000000
  1484 lmp_005                 1 R01      A5cc          0        -0.24969000        12.01000000
  1485 lmp_008                 1 R01      A5cd          0         0.17861000         1.00800000
  1486 lmp_005                 1 R01      A5ce          0        -0.03239000        12.01000000
  1487 lmp_007                 1 R01      A5cf          0         0.03221000        12.01000000
  1488 lmp_009                 1 R01      A5d0          0         0.02561000         1.00800000
  1489 lmp_007                 1 R01      A5d1          0         0.02991000        12.01000000
  1490 lmp_009                 1 R01      A5d2          0         0.02761000         1.00800000
  1491 lmp_004                 1 R01      A5d3          0         0.05471000        12.01000000
  1492 lmp_009                 1 R01      A5d4          0         0.00921000         1.00800000
  1493 lmp_007                 1 R01      A5d5          0         0.00911000        12.01000000
  1494 lmp_009                 1 R01      A5d6          0         0.03851000         1.00800000
  1495 lmp_005                 1 R01      A5d7          0        -0.12349000        12.01000000
  1496 lmp_005                 1 R01      A5d8          0        -0.12549000        12.01000000
  1497 lmp_005                 1 R01      A5d9          0         0.03581000        12.01000000
  1498 lmp_003                 1 R01      A5da          0        -0.11109000        12.01000000
  1499 lmp_009                 1 R01      A5db          0         0.04331000         1.00800000
  1500 lmp_009                 1 R01      A5dc          0         0.04331000         1.00800000
  1501 lmp_009                 1 R01      A5dd          0         0.04331000         1.00800000
  1502 lmp_005                 1 R01      A5de          0        -0.08649000        12.01000000
  1503 lmp_005                 1 R01      A5df          0        -0.09149000        12.01000000
  1504 lmp_005                 1 R01      A5e0          0         0.05181000        12.01000000
  1505 lmp_003                 1 R01      A5e1          0        -0.10009000        12.01000000
  1506 lmp_009                 1 R01      A5e2          0         0.04551000         1.00800000
  1507 lmp_009                 1 R01      A5e3          0         0.04551000         1.00800000
  1508 lmp_009                 1 R01      A5e4          0         0.04551000         1.00800000
  1509 lmp_007                 1 R01      A5e5          0         0.00531000        12.01000000
  1510 lmp_009                 1 R01      A5e6          0         0.03971000         1.00800000
  1511 lmp_004                 1 R01      A5e7          0         0.05571000        12.01000000
  1512 lmp_009                 1 R01      A5e8          0         0.01041000         1.00800000
  1513 lmp_004                 1 R01      A5e9          0        -0.21059000        12.01000000
  1514 lmp_009                 1 R01      A5ea          0         0.05311000         1.00800000
  1515 lmp_009                 1 R01      A5eb          0         0.05311000         1.00800000
  1516 lmp_005                 1 R01      A5ec          0        -0.04569000        12.01000000
  1517 lmp_005                 1 R01      A5ed          0        -0.20379000        12.01000000
  1518 lmp_008                 1 R01      A5ee          0         0.15591000         1.00800000
  1519 lmp_003                 1 R01      A5ef          0        -0.10048000        12.01000000
  1520 lmp_009                 1 R01      A5f0          0         0.02361000         1.00800000
  1521 lmp_009                 1 R01      A5f1          0         0.02361000         1.00800000
  1522 lmp_009                 1 R01      A5f2          0         0.02361000         1.00800000
  1523 lmp_004                 1 R01      A5f3          0         0.19001000        12.01000000
  1524 lmp_003                 1 R01      A5f4          0        -0.17889000        12.01000000
  1525 lmp_009                 1 R01      A5f5          0         0.04121000         1.00800000
  1526 lmp_009                 1 R01      A5f6          0         0.04121000         1.00800000
  1527 lmp_009                 1 R01      A5f7          0         0.04121000         1.00800000
  1528 lmp_005                 1 R01      A5f8          0         0.00401000        12.01000000
  1529 lmp_006                 1 R01      A5f9          0         0.00111000        12.01000000
  1530 lmp_005                 1 R01      A5fa          0        -0.18989000        12.01000000
  1531 lmp_008                 1 R01      A5fb          0         0.14431000         1.00800000
  1532 lmp_005                 1 R01      A5fc          0        -0.04879000        12.01000000
  1533 lmp_007                 1 R01      A5fd          0         0.03141000        12.01000000
  1534 lmp_009                 1 R01      A5fe          0         0.03521000         1.00800000
  1535 lmp_007                 1 R01      A5ff          0         0.01591000        12.01000000
  1536 lmp_009                 1 R01      A600          0         0.03721000         1.00800000
  1537 lmp_004                 1 R01      A601          0         0.02141000        12.01000000
  1538 lmp_009                 1 R01      A602          0         0.01911000         1.00800000
  1539 lmp_007                 1 R01      A603          0         0.02241000        12.01000000
  1540 lmp_009                 1 R01      A604          0         0.03781000         1.00800000
  1541 lmp_007                 1 R01      A605          0         0.01411000        12.01000000
  1542 lmp_009                 1 R01      A606          0         0.03861000         1.00800000
  1543 lmp_004                 1 R01      A607          0         0.01111000        12.01000000
  1544 lmp_009                 1 R01      A608          0         0.02341000         1.00800000
  1545 lmp_004                 1 R01      A609          0        -0.10289000        12.01000000
  1546 lmp_009                 1 R01      A60a          0         0.04701000         1.00800000
  1547 lmp_009                 1 R01      A60b          0         0.04701000         1.00800000
  1548 lmp_005                 1 R01      A60c          0        -0.03099000        12.01000000
  1549 lmp_005                 1 R01      A60d          0        -0.25069000        12.01000000
  1550 lmp_008                 1 R01      A60e          0         0.17281000         1.00800000
  1551 lmp_006                 1 R01      A60f          0         0.02131000        12.01000000
  1552 lmp_005                 1 R01      A610          0         0.02031000        12.01000000
  1553 lmp_005                 1 R01      A611          0        -0.24969000        12.01000000
  1554 lmp_008                 1 R01      A612          0         0.17861000         1.00800000
  1555 lmp_005                 1 R01      A613          0        -0.03239000        12.01000000
  1556 lmp_007                 1 R01      A614          0         0.03221000        12.01000000
  1557 lmp_009                 1 R01      A615          0         0.02561000         1.00800000
  1558 lmp_007                 1 R01      A616          0         0.02991000        12.01000000
  1559 lmp_009                 1 R01      A617          0         0.02761000         1.00800000
  1560 lmp_004                 1 R01      A618          0         0.05471000        12.01000000
  1561 lmp_009                 1 R01      A619          0         0.00921000         1.00800000
  1562 lmp_007                 1 R01      A61a          0         0.00911000        12.01000000
  1563 lmp_009                 1 R01      A61b          0         0.03851000         1.00800000
  1564 lmp_005                 1 R01      A61c          0        -0.12349000        12.01000000
  1565 lmp_005                 1 R01      A61d          0        -0.12549000        12.01000000
  1566 lmp_005                 1 R01      A61e          0         0.03581000        12.01000000
  1567 lmp_003                 1 R01      A61f          0        -0.11109000        12.01000000
  1568 lmp_009                 1 R01      A620          0         0.04331000         1.00800000
  1569 lmp_009                 1 R01      A621          0         0.04331000         1.00800000
  1570 lmp_009                 1 R01      A622          0         0.04331000         1.00800000
  1571 lmp_005                 1 R01      A623          0        -0.08649000        12.01000000
  1572 lmp_005                 1 R01      A624          0        -0.09149000        12.01000000
  1573 lmp_005                 1 R01      A625          0         0.05181000        12.01000000
  1574 lmp_003                 1 R01      A626          0        -0.10009000        12.01000000
  1575 lmp_009                 1 R01      A627          0         0.04551000         1.00800000
  1576 lmp_009                 1 R01      A628          0         0.04551000         1.00800000
  1577 lmp_009                 1 R01      A629          0         0.04551000         1.00800000
  1578 lmp_007                 1 R01      A62a          0         0.00531000        12.01000000
  1579 lmp_009                 1 R01      A62b          0         0.03971000         1.00800000
  1580 lmp_004                 1 R01      A62c          0         0.05571000        12.01000000
  1581 lmp_009                 1 R01      A62d          0         0.01041000         1.00800000
  1582 lmp_004                 1 R01      A62e          0        -0.21059000        12.01000000
  1583 lmp_009                 1 R01      A62f          0         0.05311000         1.00800000
  1584 lmp_009                 1 R01      A630          0         0.05311000         1.00800000
  1585 lmp_005                 1 R01      A631          0        -0.04569000        12.01000000
  1586 lmp_005                 1 R01      A632          0        -0.20379000        12.01000000
  1587 lmp_008                 1 R01      A633          0         0.15591000         1.00800000
  1588 lmp_003                 1 R01      A634          0        -0.10048000        12.01000000
  1589 lmp_009                 1 R01      A635          0         0.02361000         1.00800000
  1590 lmp_009                 1 R01      A636          0         0.02361000         1.00800000
  1591 lmp_009                 1 R01      A637          0         0.02361000         1.00800000
  1592 lmp_004                 1 R01      A638          0         0.19001000        12.01000000
  1593 lmp_003                 1 R01      A639          0        -0.17889000        12.01000000
  1594 lmp_009                 1 R01      A63a          0         0.04121000         1.00800000
  1595 lmp_009                 1 R01      A63b          0         0.04121000         1.00800000
  1596 lmp_009                 1 R01      A63c          0         0.04121000         1.00800000
  1597 lmp_005                 1 R01      A63d          0         0.00401000        12.01000000
  1598 lmp_006                 1 R01      A63e          0         0.00111000        12.01000000
  1599 lmp_005                 1 R01      A63f          0        -0.18989000        12.01000000
  1600 lmp_008                 1 R01      A640          0         0.14431000         1.00800000
  1601 lmp_005                 1 R01      A641          0        -0.04879000        12.01000000
  1602 lmp_007                 1 R01      A642          0         0.03141000        12.01000000
  1603 lmp_009                 1 R01      A643          0         0.03521000         1.00800000
  1604 lmp_007                 1 R01      A644          0         0.01591000        12.01000000
  1605 lmp_009                 1 R01      A645          0         0.03721000         1.00800000
  1606 lmp_004                 1 R01      A646          0         0.02141000        12.01000000
  1607 lmp_009                 1 R01      A647          0         0.01911000         1.00800000
  1608 lmp_007                 1 R01      A648          0         0.02241000        12.01000000
  1609 lmp_009                 1 R01      A649          0         0.03781000         1.00800000
  1610 lmp_007                 1 R01      A64a          0         0.01411000        12.01000000
  1611 lmp_009                 1 R01      A64b          0         0.03861000         1.00800000
  1612 lmp_004                 1 R01      A64c          0         0.01111000        12.01000000
  1613 lmp_009                 1 R01      A64d          0         0.02341000         1.00800000
  1614 lmp_004                 1 R01      A64e          0        -0.10289000        12.01000000
  1615 lmp_009                 1 R01      A64f          0         0.04701000         1.00800000
  1616 lmp_009                 1 R01      A650          0         0.04701000         1.00800000
  1617 lmp_005                 1 R01      A651          0        -0.03099000        12.01000000
  1618 lmp_005                 1 R01      A652          0        -0.25069000        12.01000000
  1619 lmp_008                 1 R01      A653          0         0.17281000         1.00800000
  1620 lmp_006                 1 R01      A654          0         0.02131000        12.01000000
  1621 lmp_005                 1 R01      A655          0         0.02031000        12.01000000
  1622 lmp_005                 1 R01      A656          0        -0.24969000        12.01000000
  1623 lmp_008                 1 R01      A657          0         0.17861000         1.00800000
  1624 lmp_005                 1 R01      A658          0        -0.03239000        12.01000000
  1625 lmp_007                 1 R01      A659          0         0.03221000        12.01000000
  1626 lmp_009                 1 R01      A65a          0         0.02561000         1.00800000
  1627 lmp_007                 1 R01      A65b          0         0.02991000        12.01000000
  1628 lmp_009                 1 R01      A65c          0         0.02761000         1.00800000
  1629 lmp_004                 1 R01      A65d          0         0.05471000        12.01000000
  1630 lmp_009                 1 R01      A65e          0         0.00921000         1.00800000
  1631 lmp_007                 1 R01      A65f          0         0.00911000        12.01000000
  1632 lmp_009                 1 R01      A660          0         0.03851000         1.00800000
  1633 lmp_005                 1 R01      A661          0        -0.12349000        12.01000000
  1634 lmp_005                 1 R01      A662          0        -0.12549000        12.01000000
  1635 lmp_005                 1 R01      A663          0         0.03581000        12.01000000
  1636 lmp_003                 1 R01      A664          0        -0.11109000        12.01000000
  1637 lmp_009                 1 R01      A665          0         0.04331000         1.00800000
  1638 lmp_009                 1 R01      A666          0         0.04331000         1.00800000
  1639 lmp_009                 1 R01      A667          0         0.04331000         1.00800000
  1640 lmp_005                 1 R01      A668          0        -0.08649000        12.01000000
  1641 lmp_005                 1 R01      A669          0        -0.09149000        12.01000000
  1642 lmp_005                 1 R01      A66a          0         0.05181000        12.01000000
  1643 lmp_003                 1 R01      A66b          0        -0.10009000        12.01000000
  1644 lmp_009                 1 R01      A66c          0         0.04551000         1.00800000
  1645 lmp_009                 1 R01      A66d          0         0.04551000         1.00800000
  1646 lmp_009                 1 R01      A66e          0         0.04551000         1.00800000
  1647 lmp_007                 1 R01      A66f          0         0.00531000        12.01000000
  1648 lmp_009                 1 R01      A670          0         0.03971000         1.00800000
  1649 lmp_004                 1 R01      A671          0         0.05571000        12.01000000
  1650 lmp_009                 1 R01      A672          0         0.01041000         1.00800000
  1651 lmp_004                 1 R01      A673          0        -0.21059000        12.01000000
  1652 lmp_009                 1 R01      A674          0         0.05311000         1.00800000
  1653 lmp_009                 1 R01      A675          0         0.05311000         1.00800000
  1654 lmp_005                 1 R01      A676          0        -0.04569000        12.01000000
  1655 lmp_005                 1 R01      A677          0        -0.20379000        12.01000000
  1656 lmp_008                 1 R01      A678          0         0.15591000         1.00800000
  1657 lmp_003                 1 R01      A679          0        -0.10048000        12.01000000
  1658 lmp_009                 1 R01      A67a          0         0.02361000         1.00800000
  1659 lmp_009                 1 R01      A67b          0         0.02361000         1.00800000
  1660 lmp_009                 1 R01      A67c          0         0.02361000         1.00800000
  1661 lmp_004                 1 R01      A67d          0         0.19001000        12.01000000
  1662 lmp_003                 1 R01      A67e          0        -0.17889000        12.01000000
  1663 lmp_009                 1 R01      A67f          0         0.04121000         1.00800000
  1664 lmp_009                 1 R01      A680          0         0.04121000         1.00800000
  1665 lmp_009                 1 R01      A681          0         0.04121000         1.00800000
  1666 lmp_005                 1 R01      A682          0         0.00401000        12.01000000
  1667 lmp_006                 1 R01      A683          0         0.00111000        12.01000000
  1668 lmp_005                 1 R01      A684          0        -0.18989000        12.01000000
  1669 lmp_008                 1 R01      A685          0         0.14431000         1.00800000
  1670 lmp_005                 1 R01      A686          0        -0.04879000        12.01000000
  1671 lmp_007                 1 R01      A687          0         0.03141000        12.01000000
  1672 lmp_009                 1 R01      A688          0         0.03521000         1.00800000
  1673 lmp_007                 1 R01      A689          0         0.01591000        12.01000000
  1674 lmp_009                 1 R01      A68a          0         0.03721000         1.00800000
  1675 lmp_004                 1 R01      A68b          0         0.02141000        12.01000000
  1676 lmp_009                 1 R01      A68c          0         0.01911000         1.00800000
  1677 lmp_007                 1 R01      A68d          0         0.02241000        12.01000000
  1678 lmp_009                 1 R01      A68e          0         0.03781000         1.00800000
  1679 lmp_007                 1 R01      A68f          0         0.01411000        12.01000000
  1680 lmp_009                 1 R01      A690          0         0.03861000         1.00800000
  1681 lmp_004                 1 R01      A691          0         0.01111000        12.01000000
  1682 lmp_009                 1 R01      A692          0         0.02341000         1.00800000
  1683 lmp_004                 1 R01      A693          0        -0.10289000        12.01000000
  1684 lmp_009                 1 R01      A694          0         0.04701000         1.00800000
  1685 lmp_009                 1 R01      A695          0         0.04701000         1.00800000
  1686 lmp_005                 1 R01      A696          0        -0.03099000        12.01000000
  1687 lmp_005                 1 R01      A697          0        -0.25069000        12.01000000
  1688 lmp_008                 1 R01      A698          0         0.17281000         1.00800000
  1689 lmp_006                 1 R01      A699          0         0.02131000        12.01000000
  1690 lmp_005                 1 R01      A69a          0         0.02031000        12.01000000
  1691 lmp_005                 1 R01      A69b          0        -0.24969000        12.01000000
  1692 lmp_008                 1 R01      A69c          0         0.17861000         1.00800000
  1693 lmp_005                 1 R01      A69d          0        -0.03239000        12.01000000
  1694 lmp_007                 1 R01      A69e          0         0.03221000        12.01000000
  1695 lmp_009                 1 R01      A69f          0         0.02561000         1.00800000
  1696 lmp_007                 1 R01      A6a0          0         0.02991000        12.01000000
  1697 lmp_009                 1 R01      A6a1          0         0.02761000         1.00800000
  1698 lmp_004                 1 R01      A6a2          0         0.05471000        12.01000000
  1699 lmp_009                 1 R01      A6a3          0         0.00921000         1.00800000
  1700 lmp_007                 1 R01      A6a4          0         0.00911000        12.01000000
  1701 lmp_009                 1 R01      A6a5          0         0.03851000         1.00800000
  1702 lmp_005                 1 R01      A6a6          0        -0.12349000        12.01000000
  1703 lmp_005                 1 R01      A6a7          0        -0.12549000        12.01000000
  1704 lmp_005                 1 R01      A6a8          0         0.03581000        12.01000000
  1705 lmp_003                 1 R01      A6a9          0        -0.11109000        12.01000000
  1706 lmp_009                 1 R01      A6aa          0         0.04331000         1.00800000
  1707 lmp_009                 1 R01      A6ab          0         0.04331000         1.00800000
  1708 lmp_009                 1 R01      A6ac          0         0.04331000         1.00800000
  1709 lmp_005                 1 R01      A6ad          0        -0.08649000        12.01000000
  1710 lmp_005                 1 R01      A6ae          0        -0.09149000        12.01000000
  1711 lmp_005                 1 R01      A6af          0         0.05181000        12.01000000
  1712 lmp_003                 1 R01      A6b0          0        -0.10009000        12.01000000
  1713 lmp_009                 1 R01      A6b1          0         0.04551000         1.00800000
  1714 lmp_009                 1 R01      A6b2          0         0.04551000         1.00800000
  1715 lmp_009                 1 R01      A6b3          0         0.04551000         1.00800000
  1716 lmp_007                 1 R01      A6b4          0         0.00531000        12.01000000
  1717 lmp_009                 1 R01      A6b5          0         0.03971000         1.00800000
  1718 lmp_004                 1 R01      A6b6          0         0.05571000        12.01000000
  1719 lmp_009                 1 R01      A6b7          0         0.01041000         1.00800000
  1720 lmp_004                 1 R01      A6b8          0        -0.21059000        12.01000000
  1721 lmp_009                 1 R01      A6b9          0         0.05311000         1.00800000
  1722 lmp_009                 1 R01      A6ba          0         0.05311000         1.00800000
  1723 lmp_005                 1 R01      A6bb          0        -0.04569000        12.01000000
  1724 lmp_005                 1 R01      A6bc          0        -0.20379000        12.01000000
  1725 lmp_008                 1 R01      A6bd          0         0.15591000         1.00800000
  1726 lmp_003                 1 R01      A6be          0        -0.10048000        12.01000000
  1727 lmp_009                 1 R01      A6bf          0         0.02361000         1.00800000
  1728 lmp_009                 1 R01      A6c0          0         0.02361000         1.00800000
  1729 lmp_009                 1 R01      A6c1          0         0.02361000         1.00800000
  1730 lmp_004                 1 R01      A6c2          0         0.19001000        12.01000000
  1731 lmp_003                 1 R01      A6c3          0        -0.17889000        12.01000000
  1732 lmp_009                 1 R01      A6c4          0         0.04121000         1.00800000
  1733 lmp_009                 1 R01      A6c5          0         0.04121000         1.00800000
  1734 lmp_009                 1 R01      A6c6          0         0.04121000         1.00800000
  1735 lmp_005                 1 R01      A6c7          0         0.00401000        12.01000000
  1736 lmp_006                 1 R01      A6c8          0         0.00111000        12.01000000
  1737 lmp_005                 1 R01      A6c9          0        -0.18989000        12.01000000
  1738 lmp_008                 1 R01      A6ca          0         0.14431000         1.00800000
  1739 lmp_005                 1 R01      A6cb          0        -0.04879000        12.01000000
  1740 lmp_007                 1 R01      A6cc          0         0.03141000        12.01000000
  1741 lmp_009                 1 R01      A6cd          0         0.03521000         1.00800000
  1742 lmp_007                 1 R01      A6ce          0         0.01591000        12.01000000
  1743 lmp_009                 1 R01      A6cf          0         0.03721000         1.00800000
  1744 lmp_004                 1 R01      A6d0          0         0.02141000        12.01000000
  1745 lmp_009                 1 R01      A6d1          0         0.01911000         1.00800000
  1746 lmp_007                 1 R01      A6d2          0         0.02241000        12.01000000
  1747 lmp_009                 1 R01      A6d3          0         0.03781000         1.00800000
  1748 lmp_007                 1 R01      A6d4          0         0.01411000        12.01000000
  1749 lmp_009                 1 R01      A6d5          0         0.03861000         1.00800000
  1750 lmp_004                 1 R01      A6d6          0         0.01111000        12.01000000
  1751 lmp_009                 1 R01      A6d7          0         0.02341000         1.00800000
  1752 lmp_004                 1 R01      A6d8          0        -0.10289000        12.01000000
  1753 lmp_009                 1 R01      A6d9          0         0.04701000         1.00800000
  1754 lmp_009                 1 R01      A6da          0         0.04701000         1.00800000
  1755 lmp_005                 1 R01      A6db          0        -0.03099000        12.01000000
  1756 lmp_005                 1 R01      A6dc          0        -0.25069000        12.01000000
  1757 lmp_008                 1 R01      A6dd          0         0.17281000         1.00800000
  1758 lmp_006                 1 R01      A6de          0         0.02131000        12.01000000
  1759 lmp_005                 1 R01      A6df          0         0.02031000        12.01000000
  1760 lmp_005                 1 R01      A6e0          0        -0.24969000        12.01000000
  1761 lmp_008                 1 R01      A6e1          0         0.17861000         1.00800000
  1762 lmp_005                 1 R01      A6e2          0        -0.03239000        12.01000000
  1763 lmp_007                 1 R01      A6e3          0         0.03221000        12.01000000
  1764 lmp_009                 1 R01      A6e4          0         0.02561000         1.00800000
  1765 lmp_007                 1 R01      A6e5          0         0.02991000        12.01000000
  1766 lmp_009                 1 R01      A6e6          0         0.02761000         1.00800000
  1767 lmp_004                 1 R01      A6e7          0         0.05471000        12.01000000
  1768 lmp_009                 1 R01      A6e8          0         0.00921000         1.00800000
  1769 lmp_007                 1 R01      A6e9          0         0.00911000        12.01000000
  1770 lmp_009                 1 R01      A6ea          0         0.03851000         1.00800000
  1771 lmp_005                 1 R01      A6eb          0        -0.12349000        12.01000000
  1772 lmp_005                 1 R01      A6ec          0        -0.12549000        12.01000000
  1773 lmp_005                 1 R01      A6ed          0         0.03581000        12.01000000
  1774 lmp_003                 1 R01      A6ee          0        -0.11109000        12.01000000
  1775 lmp_009                 1 R01      A6ef          0         0.04331000         1.00800000
  1776 lmp_009                 1 R01      A6f0          0         0.04331000         1.00800000
  1777 lmp_009                 1 R01      A6f1          0         0.04331000         1.00800000
  1778 lmp_005                 1 R01      A6f2          0        -0.08649000        12.01000000
  1779 lmp_005                 1 R01      A6f3          0        -0.09149000        12.01000000
  1780 lmp_005                 1 R01      A6f4          0         0.05181000        12.01000000
  1781 lmp_003                 1 R01      A6f5          0        -0.10009000        12.01000000
  1782 lmp_009                 1 R01      A6f6          0         0.04551000         1.00800000
  1783 lmp_009                 1 R01      A6f7          0         0.04551000         1.00800000
  1784 lmp_009                 1 R01      A6f8          0         0.04551000         1.00800000
  1785 lmp_007                 1 R01      A6f9          0         0.00531000        12.01000000
  1786 lmp_009                 1 R01      A6fa          0         0.03971000         1.00800000
  1787 lmp_004                 1 R01      A6fb          0         0.05571000        12.01000000
  1788 lmp_009                 1 R01      A6fc          0         0.01041000         1.00800000
  1789 lmp_004                 1 R01      A6fd          0        -0.21059000        12.01000000
  1790 lmp_009                 1 R01      A6fe          0         0.05311000         1.00800000
  1791 lmp_009                 1 R01      A6ff          0         0.05311000         1.00800000
  1792 lmp_005                 1 R01      A700          0        -0.04569000        12.01000000
  1793 lmp_005                 1 R01      A701          0        -0.20379000        12.01000000
  1794 lmp_008                 1 R01      A702          0         0.15591000         1.00800000
  1795 lmp_003                 1 R01      A703          0        -0.10048000        12.01000000
  1796 lmp_009                 1 R01      A704          0         0.02361000         1.00800000
  1797 lmp_009                 1 R01      A705          0         0.02361000         1.00800000
  1798 lmp_009                 1 R01      A706          0         0.02361000         1.00800000
  1799 lmp_004                 1 R01      A707          0         0.19001000        12.01000000
  1800 lmp_003                 1 R01      A708          0        -0.17889000        12.01000000
  1801 lmp_009                 1 R01      A709          0         0.04121000         1.00800000
  1802 lmp_009                 1 R01      A70a          0         0.04121000         1.00800000
  1803 lmp_009                 1 R01      A70b          0         0.04121000         1.00800000
  1804 lmp_005                 1 R01      A70c          0         0.00401000        12.01000000
  1805 lmp_006                 1 R01      A70d          0         0.00111000        12.01000000
  1806 lmp_005                 1 R01      A70e          0        -0.18989000        12.01000000
  1807 lmp_008                 1 R01      A70f          0         0.14431000         1.00800000
  1808 lmp_005                 1 R01      A710          0        -0.04879000        12.01000000
  1809 lmp_007                 1 R01      A711          0         0.03141000        12.01000000
  1810 lmp_009                 1 R01      A712          0         0.03521000         1.00800000
  1811 lmp_007                 1 R01      A713          0         0.01591000        12.01000000
  1812 lmp_009                 1 R01      A714          0         0.03721000         1.00800000
  1813 lmp_004                 1 R01      A715          0         0.02141000        12.01000000
  1814 lmp_009                 1 R01      A716          0         0.01911000         1.00800000
  1815 lmp_007                 1 R01      A717          0         0.02241000        12.01000000
  1816 lmp_009                 1 R01      A718          0         0.03781000         1.00800000
  1817 lmp_007                 1 R01      A719          0         0.01411000        12.01000000
  1818 lmp_009                 1 R01      A71a          0         0.03861000         1.00800000
  1819 lmp_004                 1 R01      A71b          0         0.01111000        12.01000000
  1820 lmp_009                 1 R01      A71c          0         0.02341000         1.00800000
  1821 lmp_004                 1 R01      A71d          0        -0.10289000        12.01000000
  1822 lmp_009                 1 R01      A71e          0         0.04701000         1.00800000
  1823 lmp_009                 1 R01      A71f          0         0.04701000         1.00800000
  1824 lmp_005                 1 R01      A720          0        -0.03099000        12.01000000
  1825 lmp_005                 1 R01      A721          0        -0.25069000        12.01000000
  1826 lmp_008                 1 R01      A722          0         0.17281000         1.00800000
  1827 lmp_006                 1 R01      A723          0         0.02131000        12.01000000
  1828 lmp_005                 1 R01      A724          0         0.02031000        12.01000000
  1829 lmp_005                 1 R01      A725          0        -0.24969000        12.01000000
  1830 lmp_008                 1 R01      A726          0         0.17861000         1.00800000
  1831 lmp_005                 1 R01      A727          0        -0.03239000        12.01000000
  1832 lmp_007                 1 R01      A728          0         0.03221000        12.01000000
  1833 lmp_009                 1 R01      A729          0         0.02561000         1.00800000
  1834 lmp_007                 1 R01      A72a          0         0.02991000        12.01000000
  1835 lmp_009                 1 R01      A72b          0         0.02761000         1.00800000
  1836 lmp_004                 1 R01      A72c          0         0.05471000        12.01000000
  1837 lmp_009                 1 R01      A72d          0         0.00921000         1.00800000
  1838 lmp_007                 1 R01      A72e          0         0.00911000        12.01000000
  1839 lmp_009                 1 R01      A72f          0         0.03851000         1.00800000
  1840 lmp_005                 1 R01      A730          0        -0.12349000        12.01000000
  1841 lmp_005                 1 R01      A731          0        -0.12549000        12.01000000
  1842 lmp_005                 1 R01      A732          0         0.03581000        12.01000000
  1843 lmp_003                 1 R01      A733          0        -0.11109000        12.01000000
  1844 lmp_009                 1 R01      A734          0         0.04331000         1.00800000
  1845 lmp_009                 1 R01      A735          0         0.04331000         1.00800000
  1846 lmp_009                 1 R01      A736          0         0.04331000         1.00800000
  1847 lmp_005                 1 R01      A737          0        -0.08649000        12.01000000
  1848 lmp_005                 1 R01      A738          0        -0.09149000        12.01000000
  1849 lmp_005                 1 R01      A739          0         0.05181000        12.01000000
  1850 lmp_003                 1 R01      A73a          0        -0.10009000        12.01000000
  1851 lmp_009                 1 R01      A73b          0         0.04551000         1.00800000
  1852 lmp_009                 1 R01      A73c          0         0.04551000         1.00800000
  1853 lmp_009                 1 R01      A73d          0         0.04551000         1.00800000
  1854 lmp_007                 1 R01      A73e          0         0.00531000        12.01000000
  1855 lmp_009                 1 R01      A73f          0         0.03971000         1.00800000
  1856 lmp_004                 1 R01      A740          0         0.05571000        12.01000000
  1857 lmp_009                 1 R01      A741          0         0.01041000         1.00800000
  1858 lmp_004                 1 R01      A742          0        -0.21059000        12.01000000
  1859 lmp_009                 1 R01      A743          0         0.05311000         1.00800000
  1860 lmp_009                 1 R01      A744          0         0.05311000         1.00800000
  1861 lmp_005                 1 R01      A745          0        -0.04569000        12.01000000
  1862 lmp_005                 1 R01      A746          0        -0.20379000        12.01000000
  1863 lmp_008                 1 R01      A747          0         0.15591000         1.00800000
  1864 lmp_003                 1 R01      A748          0        -0.10048000        12.01000000
  1865 lmp_009                 1 R01      A749          0         0.02361000         1.00800000
  1866 lmp_009                 1 R01      A74a          0         0.02361000         1.00800000
  1867 lmp_009                 1 R01      A74b          0         0.02361000         1.00800000
  1868 lmp_004                 1 R01      A74c          0         0.19001000        12.01000000
  1869 lmp_003                 1 R01      A74d          0        -0.17889000        12.01000000
  1870 lmp_009                 1 R01      A74e          0         0.04121000         1.00800000
  1871 lmp_009                 1 R01      A74f          0         0.04121000         1.00800000
  1872 lmp_009                 1 R01      A750          0         0.04121000         1.00800000
  1873 lmp_005                 1 R01      A751          0         0.00401000        12.01000000
  1874 lmp_006                 1 R01      A752          0         0.00111000        12.01000000
  1875 lmp_005                 1 R01      A753          0        -0.18989000        12.01000000
  1876 lmp_008                 1 R01      A754          0         0.14431000         1.00800000
  1877 lmp_005                 1 R01      A755          0        -0.04879000        12.01000000
  1878 lmp_007                 1 R01      A756          0         0.03141000        12.01000000
  1879 lmp_009                 1 R01      A757          0         0.03521000         1.00800000
  1880 lmp_007                 1 R01      A758          0         0.01591000        12.01000000
  1881 lmp_009                 1 R01      A759          0         0.03721000         1.00800000
  1882 lmp_004                 1 R01      A75a          0         0.02141000        12.01000000
  1883 lmp_009                 1 R01      A75b          0         0.01911000         1.00800000
  1884 lmp_007                 1 R01      A75c          0         0.02241000        12.01000000
  1885 lmp_009                 1 R01      A75d          0         0.03781000         1.00800000
  1886 lmp_007                 1 R01      A75e          0         0.01411000        12.01000000
  1887 lmp_009                 1 R01      A75f          0         0.03861000         1.00800000
  1888 lmp_004                 1 R01      A760          0         0.01111000        12.01000000
  1889 lmp_009                 1 R01      A761          0         0.02341000         1.00800000
  1890 lmp_004                 1 R01      A762          0        -0.10289000        12.01000000
  1891 lmp_009                 1 R01      A763          0         0.04701000         1.00800000
  1892 lmp_009                 1 R01      A764          0         0.04701000         1.00800000
  1893 lmp_005                 1 R01      A765          0        -0.03099000        12.01000000
  1894 lmp_005                 1 R01      A766          0        -0.25069000        12.01000000
  1895 lmp_008                 1 R01      A767          0         0.17281000         1.00800000
  1896 lmp_006                 1 R01      A768          0         0.02131000        12.01000000
  1897 lmp_005                 1 R01      A769          0         0.02031000        12.01000000
  1898 lmp_005                 1 R01      A76a          0        -0.24969000        12.01000000
  1899 lmp_008                 1 R01      A76b          0         0.17861000         1.00800000
  1900 lmp_005                 1 R01      A76c          0        -0.03239000        12.01000000
  1901 lmp_007                 1 R01      A76d          0         0.03221000        12.01000000
  1902 lmp_009                 1 R01      A76e          0         0.02561000         1.00800000
  1903 lmp_007                 1 R01      A76f          0         0.02991000        12.01000000
  1904 lmp_009                 1 R01      A770          0         0.02761000         1.00800000
  1905 lmp_004                 1 R01      A771          0         0.05471000        12.01000000
  1906 lmp_009                 1 R01      A772          0         0.00921000         1.00800000
  1907 lmp_007                 1 R01      A773          0         0.00911000        12.01000000
  1908 lmp_009                 1 R01      A774          0         0.03851000         1.00800000
  1909 lmp_005                 1 R01      A775          0        -0.12349000        12.01000000
  1910 lmp_005                 1 R01      A776          0        -0.12549000        12.01000000
  1911 lmp_005                 1 R01      A777          0         0.03581000        12.01000000
  1912 lmp_003                 1 R01      A778          0        -0.11109000        12.01000000
  1913 lmp_009                 1 R01      A779          0         0.04331000         1.00800000
  1914 lmp_009                 1 R01      A77a          0         0.04331000         1.00800000
  1915 lmp_009                 1 R01      A77b          0         0.04331000         1.00800000
  1916 lmp_005                 1 R01      A77c          0        -0.08649000        12.01000000
  1917 lmp_005                 1 R01      A77d          0        -0.09149000        12.01000000
  1918 lmp_005                 1 R01      A77e          0         0.05181000        12.01000000
  1919 lmp_003                 1 R01      A77f          0        -0.10009000        12.01000000
  1920 lmp_009                 1 R01      A780          0         0.04551000         1.00800000
  1921 lmp_009                 1 R01      A781          0         0.04551000         1.00800000
  1922 lmp_009                 1 R01      A782          0         0.04551000         1.00800000
  1923 lmp_007                 1 R01      A783          0         0.00531000        12.01000000
  1924 lmp_009                 1 R01      A784          0         0.03971000         1.00800000
  1925 lmp_004                 1 R01      A785          0         0.05571000        12.01000000
  1926 lmp_009                 1 R01      A786          0         0.01041000         1.00800000
  1927 lmp_004                 1 R01      A787          0        -0.21059000        12.01000000
  1928 lmp_009                 1 R01      A788          0         0.05311000         1.00800000
  1929 lmp_009                 1 R01      A789          0         0.05311000         1.00800000
  1930 lmp_005                 1 R01      A78a          0        -0.04569000        12.01000000
  1931 lmp_005                 1 R01      A78b          0        -0.20379000        12.01000000
  1932 lmp_008                 1 R01      A78c          0         0.15591000         1.00800000
  1933 lmp_003                 1 R01      A78d          0        -0.10048000        12.01000000
  1934 lmp_009                 1 R01      A78e          0         0.02361000         1.00800000
  1935 lmp_009                 1 R01      A78f          0         0.02361000         1.00800000
  1936 lmp_009                 1 R01      A790          0         0.02361000         1.00800000
  1937 lmp_004                 1 R01      A791          0         0.19001000        12.01000000
  1938 lmp_003                 1 R01      A792          0        -0.17889000        12.01000000
  1939 lmp_009                 1 R01      A793          0         0.04121000         1.00800000
  1940 lmp_009                 1 R01      A794          0         0.04121000         1.00800000
  1941 lmp_009                 1 R01      A795          0         0.04121000         1.00800000
  1942 lmp_005                 1 R01      A796          0         0.00401000        12.01000000
  1943 lmp_006                 1 R01      A797          0         0.00111000        12.01000000
  1944 lmp_005                 1 R01      A798          0        -0.18989000        12.01000000
  1945 lmp_008                 1 R01      A799          0         0.14431000         1.00800000
  1946 lmp_005                 1 R01      A79a          0        -0.04879000        12.01000000
  1947 lmp_007                 1 R01      A79b          0         0.03141000        12.01000000
  1948 lmp_009                 1 R01      A79c          0         0.03521000         1.00800000
  1949 lmp_007                 1 R01      A79d          0         0.01591000        12.01000000
  1950 lmp_009                 1 R01      A79e          0         0.03721000         1.00800000
  1951 lmp_004                 1 R01      A79f          0         0.02141000        12.01000000
  1952 lmp_009                 1 R01      A7a0          0         0.01911000         1.00800000
  1953 lmp_007                 1 R01      A7a1          0         0.02241000        12.01000000
  1954 lmp_009                 1 R01      A7a2          0         0.03781000         1.00800000
  1955 lmp_007                 1 R01      A7a3          0         0.01411000        12.01000000
  1956 lmp_009                 1 R01      A7a4          0         0.03861000         1.00800000
  1957 lmp_004                 1 R01      A7a5          0         0.01111000        12.01000000
  1958 lmp_009                 1 R01      A7a6          0         0.02341000         1.00800000
  1959 lmp_004                 1 R01      A7a7          0        -0.10289000        12.01000000
  1960 lmp_009                 1 R01      A7a8          0         0.04701000         1.00800000
  1961 lmp_009                 1 R01      A7a9          0         0.04701000         1.00800000
  1962 lmp_005                 1 R01      A7aa          0        -0.03099000        12.01000000
  1963 lmp_005                 1 R01      A7ab          0        -0.25069000        12.01000000
  1964 lmp_008                 1 R01      A7ac          0         0.17281000         1.00800000
  1965 lmp_006                 1 R01      A7ad          0         0.02131000        12.01000000
  1966 lmp_005                 1 R01      A7ae          0         0.02031000        12.01000000
  1967 lmp_005                 1 R01      A7af          0        -0.24969000        12.01000000
  1968 lmp_008                 1 R01      A7b0          0         0.17861000         1.00800000
  1969 lmp_005                 1 R01      A7b1          0        -0.03239000        12.01000000
  1970 lmp_007                 1 R01      A7b2          0         0.03221000        12.01000000
  1971 lmp_009                 1 R01      A7b3          0         0.02561000         1.00800000
  1972 lmp_007                 1 R01      A7b4          0         0.02991000        12.01000000
  1973 lmp_009                 1 R01      A7b5          0         0.02761000         1.00800000
  1974 lmp_004                 1 R01      A7b6          0         0.05471000        12.01000000
  1975 lmp_009                 1 R01      A7b7          0         0.00921000         1.00800000
  1976 lmp_007                 1 R01      A7b8          0         0.00911000        12.01000000
  1977 lmp_009                 1 R01      A7b9          0         0.03851000         1.00800000
  1978 lmp_005                 1 R01      A7ba          0        -0.12349000        12.01000000
  1979 lmp_005                 1 R01      A7bb          0        -0.12549000        12.01000000
  1980 lmp_005                 1 R01      A7bc          0         0.03581000        12.01000000
  1981 lmp_003                 1 R01      A7bd          0        -0.11109000        12.01000000
  1982 lmp_009                 1 R01      A7be          0         0.04331000         1.00800000
  1983 lmp_009                 1 R01      A7bf          0         0.04331000         1.00800000
  1984 lmp_009                 1 R01      A7c0          0         0.04331000         1.00800000
  1985 lmp_005                 1 R01      A7c1          0        -0.08649000        12.01000000
  1986 lmp_005                 1 R01      A7c2          0        -0.09149000        12.01000000
  1987 lmp_005                 1 R01      A7c3          0         0.05181000        12.01000000
  1988 lmp_003                 1 R01      A7c4          0        -0.10009000        12.01000000
  1989 lmp_009                 1 R01      A7c5          0         0.04551000         1.00800000
  1990 lmp_009                 1 R01      A7c6          0         0.04551000         1.00800000
  1991 lmp_009                 1 R01      A7c7          0         0.04551000         1.00800000
  1992 lmp_007                 1 R01      A7c8          0         0.00531000        12.01000000
  1993 lmp_009                 1 R01      A7c9          0         0.03971000         1.00800000
  1994 lmp_004                 1 R01      A7ca          0         0.05571000        12.01000000
  1995 lmp_009                 1 R01      A7cb          0         0.01041000         1.00800000
  1996 lmp_004                 1 R01      A7cc          0        -0.21059000        12.01000000
  1997 lmp_009                 1 R01      A7cd          0         0.05311000         1.00800000
  1998 lmp_009                 1 R01      A7ce          0         0.05311000         1.00800000
  1999 lmp_005                 1 R01      A7cf          0        -0.04569000        12.01000000
  2000 lmp_005                 1 R01      A7d0          0        -0.20379000        12.01000000
  2001 lmp_008                 1 R01      A7d1          0         0.15591000         1.00800000
  2002 lmp_003                 1 R01      A7d2          0        -0.10048000        12.01000000
  2003 lmp_009                 1 R01      A7d3          0         0.02361000         1.00800000
  2004 lmp_009                 1 R01      A7d4          0         0.02361000         1.00800000
  2005 lmp_009                 1 R01      A7d5          0         0.02361000         1.00800000
  2006 lmp_004                 1 R01      A7d6          0         0.19001000        12.01000000
  2007 lmp_003                 1 R01      A7d7          0        -0.17889000        12.01000000
  2008 lmp_009                 1 R01      A7d8          0         0.04121000         1.00800000
  2009 lmp_009                 1 R01      A7d9          0         0.04121000         1.00800000
  2010 lmp_009                 1 R01      A7da          0         0.04121000         1.00800000
  2011 lmp_005                 1 R01      A7db          0         0.00401000        12.01000000
  2012 lmp_006                 1 R01      A7dc          0         0.00111000        12.01000000
  2013 lmp_005                 1 R01      A7dd          0        -0.18989000        12.01000000
  2014 lmp_008                 1 R01      A7de          0         0.14431000         1.00800000
  2015 lmp_005                 1 R01      A7df          0        -0.04879000        12.01000000
  2016 lmp_007                 1 R01      A7e0          0         0.03141000        12.01000000
  2017 lmp_009                 1 R01      A7e1          0         0.03521000         1.00800000
  2018 lmp_007                 1 R01      A7e2          0         0.01591000        12.01000000
  2019 lmp_009                 1 R01      A7e3          0         0.03721000         1.00800000
  2020 lmp_004                 1 R01      A7e4          0         0.02141000        12.01000000
  2021 lmp_009                 1 R01      A7e5          0         0.01911000         1.00800000
  2022 lmp_007                 1 R01      A7e6          0         0.02241000        12.01000000
  2023 lmp_009                 1 R01      A7e7          0         0.03781000         1.00800000
  2024 lmp_007                 1 R01      A7e8          0         0.01411000        12.01000000
  2025 lmp_009                 1 R01      A7e9          0         0.03861000         1.00800000
  2026 lmp_004                 1 R01      A7ea          0         0.01111000        12.01000000
  2027 lmp_009                 1 R01      A7eb          0         0.02341000         1.00800000
  2028 lmp_004                 1 R01      A7ec          0        -0.10289000        12.01000000
  2029 lmp_009                 1 R01      A7ed          0         0.04701000         1.00800000
  2030 lmp_009                 1 R01      A7ee          0         0.04701000         1.00800000
  2031 lmp_005                 1 R01      A7ef          0        -0.03099000        12.01000000
  2032 lmp_005                 1 R01      A7f0          0        -0.25069000        12.01000000
  2033 lmp_008                 1 R01      A7f1          0         0.17281000         1.00800000
  2034 lmp_006                 1 R01      A7f2          0         0.02131000        12.01000000
  2035 lmp_005                 1 R01      A7f3          0         0.02031000        12.01000000
  2036 lmp_005                 1 R01      A7f4          0        -0.24969000        12.01000000
  2037 lmp_008                 1 R01      A7f5          0         0.17861000         1.00800000
  2038 lmp_005                 1 R01      A7f6          0        -0.03239000        12.01000000
  2039 lmp_007                 1 R01      A7f7          0         0.03221000        12.01000000
  2040 lmp_009                 1 R01      A7f8          0         0.02561000         1.00800000
  2041 lmp_007                 1 R01      A7f9          0         0.02991000        12.01000000
  2042 lmp_009                 1 R01      A7fa          0         0.02761000         1.00800000
  2043 lmp_004                 1 R01      A7fb          0         0.05471000        12.01000000
  2044 lmp_009                 1 R01      A7fc          0         0.00921000         1.00800000
  2045 lmp_007                 1 R01      A7fd          0         0.00911000        12.01000000
  2046 lmp_009                 1 R01      A7fe          0         0.03851000         1.00800000
  2047 lmp_005                 1 R01      A7ff          0        -0.12349000        12.01000000
  2048 lmp_005                 1 R01      A800          0        -0.12549000        12.01000000
  2049 lmp_005                 1 R01      A801          0         0.03581000        12.01000000
  2050 lmp_003                 1 R01      A802          0        -0.11109000        12.01000000
  2051 lmp_009                 1 R01      A803          0         0.04331000         1.00800000
  2052 lmp_009                 1 R01      A804          0         0.04331000         1.00800000
  2053 lmp_009                 1 R01      A805          0         0.04331000         1.00800000
  2054 lmp_005                 1 R01      A806          0        -0.08649000        12.01000000
  2055 lmp_005                 1 R01      A807          0        -0.09149000        12.01000000
  2056 lmp_005                 1 R01      A808          0         0.05181000        12.01000000
  2057 lmp_003                 1 R01      A809          0        -0.10009000        12.01000000
  2058 lmp_009                 1 R01      A80a          0         0.04551000         1.00800000
  2059 lmp_009                 1 R01      A80b          0         0.04551000         1.00800000
  2060 lmp_009                 1 R01      A80c          0         0.04551000         1.00800000
  2061 lmp_007                 1 R01      A80d          0         0.00531000        12.01000000
  2062 lmp_009                 1 R01      A80e          0         0.03971000         1.00800000
  2063 lmp_004                 1 R01      A80f          0         0.05571000        12.01000000
  2064 lmp_009                 1 R01      A810          0         0.01041000         1.00800000
  2065 lmp_004                 1 R01      A811          0        -0.21059000        12.01000000
  2066 lmp_009                 1 R01      A812          0         0.05311000         1.00800000
  2067 lmp_009                 1 R01      A813          0         0.05311000         1.00800000
  2068 lmp_005                 1 R01      A814          0        -0.04569000        12.01000000
  2069 lmp_005                 1 R01      A815          0        -0.20379000        12.01000000
  2070 lmp_008                 1 R01      A816          0         0.15591000         1.00800000
  2071 lmp_003                 1 R01      A817          0        -0.10048000        12.01000000
  2072 lmp_009                 1 R01      A818          0         0.02361000         1.00800000
  2073 lmp_009                 1 R01      A819          0         0.02361000         1.00800000
  2074 lmp_009                 1 R01      A81a          0         0.02361000         1.00800000
  2075 lmp_004                 1 R01      A81b          0         0.19001000        12.01000000
  2076 lmp_003                 1 R01      A81c          0        -0.17889000        12.01000000
  2077 lmp_009                 1 R01      A81d          0         0.04121000         1.00800000
  2078 lmp_009                 1 R01      A81e          0         0.04121000         1.00800000
  2079 lmp_009                 1 R01      A81f          0         0.04121000         1.00800000
  2080 lmp_005                 1 R01      A820          0         0.00401000        12.01000000
  2081 lmp_006                 1 R01      A821          0         0.00111000        12.01000000
  2082 lmp_005                 1 R01      A822          0        -0.18989000        12.01000000
  2083 lmp_008                 1 R01      A823          0         0.14431000         1.00800000
  2084 lmp_005                 1 R01      A824          0        -0.04879000        12.01000000
  2085 lmp_007                 1 R01      A825          0         0.03141000        12.01000000
  2086 lmp_009                 1 R01      A826          0         0.03521000         1.00800000
  2087 lmp_007                 1 R01      A827          0         0.01591000        12.01000000
  2088 lmp_009                 1 R01      A828          0         0.03721000         1.00800000
  2089 lmp_004                 1 R01      A829          0         0.02141000        12.01000000
  2090 lmp_009                 1 R01      A82a          0         0.01911000         1.00800000
  2091 lmp_007                 1 R01      A82b          0         0.02241000        12.01000000
  2092 lmp_009                 1 R01      A82c          0         0.03781000         1.00800000
  2093 lmp_007                 1 R01      A82d          0         0.01411000        12.01000000
  2094 lmp_009                 1 R01      A82e          0         0.03861000         1.00800000
  2095 lmp_004                 1 R01      A82f          0         0.01111000        12.01000000
  2096 lmp_009                 1 R01      A830          0         0.02341000         1.00800000
  2097 lmp_004                 1 R01      A831          0        -0.10289000        12.01000000
  2098 lmp_009                 1 R01      A832          0         0.04701000         1.00800000
  2099 lmp_009                 1 R01      A833          0         0.04701000         1.00800000
  2100 lmp_005                 1 R01      A834          0        -0.03099000        12.01000000
  2101 lmp_005                 1 R01      A835          0        -0.25069000        12.01000000
  2102 lmp_008                 1 R01      A836          0         0.17281000         1.00800000
  2103 lmp_006                 1 R01      A837          0         0.02131000        12.01000000
  2104 lmp_005                 1 R01      A838          0         0.02031000        12.01000000
  2105 lmp_005                 1 R01      A839          0        -0.24969000        12.01000000
  2106 lmp_008                 1 R01      A83a          0         0.17861000         1.00800000
  2107 lmp_005                 1 R01      A83b          0        -0.03239000        12.01000000
  2108 lmp_007                 1 R01      A83c          0         0.03221000        12.01000000
  2109 lmp_009                 1 R01      A83d          0         0.02561000         1.00800000
  2110 lmp_007                 1 R01      A83e          0         0.02991000        12.01000000
  2111 lmp_009                 1 R01      A83f          0         0.02761000         1.00800000
  2112 lmp_004                 1 R01      A840          0         0.05471000        12.01000000
  2113 lmp_009                 1 R01      A841          0         0.00921000         1.00800000
  2114 lmp_007                 1 R01      A842          0         0.00911000        12.01000000
  2115 lmp_009                 1 R01      A843          0         0.03851000         1.00800000
  2116 lmp_005                 1 R01      A844          0        -0.12349000        12.01000000
  2117 lmp_005                 1 R01      A845          0        -0.12549000        12.01000000
  2118 lmp_005                 1 R01      A846          0         0.03581000        12.01000000
  2119 lmp_003                 1 R01      A847          0        -0.11109000        12.01000000
  2120 lmp_009                 1 R01      A848          0         0.04331000         1.00800000
  2121 lmp_009                 1 R01      A849          0         0.04331000         1.00800000
  2122 lmp_009                 1 R01      A84a          0         0.04331000         1.00800000
  2123 lmp_005                 1 R01      A84b          0        -0.08649000        12.01000000
  2124 lmp_005                 1 R01      A84c          0        -0.09149000        12.01000000
  2125 lmp_005                 1 R01      A84d          0         0.05181000        12.01000000
  2126 lmp_003                 1 R01      A84e          0        -0.10009000        12.01000000
  2127 lmp_009                 1 R01      A84f          0         0.04551000         1.00800000
  2128 lmp_009                 1 R01      A850          0         0.04551000         1.00800000
  2129 lmp_009                 1 R01      A851          0         0.04551000         1.00800000
  2130 lmp_007                 1 R01      A852          0         0.00531000        12.01000000
  2131 lmp_009                 1 R01      A853          0         0.03971000         1.00800000
  2132 lmp_004                 1 R01      A854          0         0.05571000        12.01000000
  2133 lmp_009                 1 R01      A855          0         0.01041000         1.00800000
  2134 lmp_004                 1 R01      A856          0        -0.21059000        12.01000000
  2135 lmp_009                 1 R01      A857          0         0.05311000         1.00800000
  2136 lmp_009                 1 R01      A858          0         0.05311000         1.00800000
  2137 lmp_005                 1 R01      A859          0        -0.04569000        12.01000000
  2138 lmp_005                 1 R01      A85a          0        -0.20379000        12.01000000
  2139 lmp_008                 1 R01      A85b          0         0.15591000         1.00800000
  2140 lmp_003                 1 R01      A85c          0        -0.10048000        12.01000000
  2141 lmp_009                 1 R01      A85d          0         0.02361000         1.00800000
  2142 lmp_009                 1 R01      A85e          0         0.02361000         1.00800000
  2143 lmp_009                 1 R01      A85f          0         0.02361000         1.00800000
  2144 lmp_004                 1 R01      A860          0         0.19001000        12.01000000
  2145 lmp_003                 1 R01      A861          0        -0.17889000        12.01000000
  2146 lmp_009                 1 R01      A862          0         0.04121000         1.00800000
  2147 lmp_009                 1 R01      A863          0         0.04121000         1.00800000
  2148 lmp_009                 1 R01      A864          0         0.04121000         1.00800000
  2149 lmp_005                 1 R01      A865          0         0.00401000        12.01000000
  2150 lmp_006                 1 R01      A866          0         0.00111000        12.01000000
  2151 lmp_005                 1 R01      A867          0        -0.18989000        12.01000000
  2152 lmp_008                 1 R01      A868          0         0.14431000         1.00800000
  2153 lmp_005                 1 R01      A869          0        -0.04879000        12.01000000
  2154 lmp_007                 1 R01      A86a          0         0.03141000        12.01000000
  2155 lmp_009                 1 R01      A86b          0         0.03521000         1.00800000
  2156 lmp_007                 1 R01      A86c          0         0.01591000        12.01000000
  2157 lmp_009                 1 R01      A86d          0         0.03721000         1.00800000
  2158 lmp_004                 1 R01      A86e          0         0.02141000        12.01000000
  2159 lmp_009                 1 R01      A86f          0         0.01911000         1.00800000
  2160 lmp_007                 1 R01      A870          0         0.02241000        12.01000000
  2161 lmp_009                 1 R01      A871          0         0.03781000         1.00800000
  2162 lmp_007                 1 R01      A872          0         0.01411000        12.01000000
  2163 lmp_009                 1 R01      A873          0         0.03861000         1.00800000
  2164 lmp_004                 1 R01      A874          0         0.01111000        12.01000000
  2165 lmp_009                 1 R01      A875          0         0.02341000         1.00800000
  2166 lmp_004                 1 R01      A876          0        -0.10289000        12.01000000
  2167 lmp_009                 1 R01      A877          0         0.04701000         1.00800000
  2168 lmp_009                 1 R01      A878          0         0.04701000         1.00800000
  2169 lmp_005                 1 R01      A879          0        -0.03099000        12.01000000
  2170 lmp_005                 1 R01      A87a          0        -0.25069000        12.01000000
  2171 lmp_008                 1 R01      A87b          0         0.17281000         1.00800000
  2172 lmp_006                 1 R01      A87c          0         0.02131000        12.01000000
  2173 lmp_005                 1 R01      A87d          0         0.02031000        12.01000000
  2174 lmp_005                 1 R01      A87e          0        -0.24969000        12.01000000
  2175 lmp_008                 1 R01      A87f          0         0.17861000         1.00800000
  2176 lmp_005                 1 R01      A880          0        -0.03239000        12.01000000
  2177 lmp_007                 1 R01      A881          0         0.03221000        12.01000000
  2178 lmp_009                 1 R01      A882          0         0.02561000         1.00800000
  2179 lmp_007                 1 R01      A883          0         0.02991000        12.01000000
  2180 lmp_009                 1 R01      A884          0         0.02761000         1.00800000
  2181 lmp_004                 1 R01      A885          0         0.05471000        12.01000000
  2182 lmp_009                 1 R01      A886          0         0.00921000         1.00800000
  2183 lmp_007                 1 R01      A887          0         0.00911000        12.01000000
  2184 lmp_009                 1 R01      A888          0         0.03851000         1.00800000
  2185 lmp_005                 1 R01      A889          0        -0.12349000        12.01000000
  2186 lmp_005                 1 R01      A88a          0        -0.12549000        12.01000000
  2187 lmp_005                 1 R01      A88b          0         0.03581000        12.01000000
  2188 lmp_003                 1 R01      A88c          0        -0.11109000        12.01000000
  2189 lmp_009                 1 R01      A88d          0         0.04331000         1.00800000
  2190 lmp_009                 1 R01      A88e          0         0.04331000         1.00800000
  2191 lmp_009                 1 R01      A88f          0         0.04331000         1.00800000
  2192 lmp_005                 1 R01      A890          0        -0.08649000        12.01000000
  2193 lmp_005                 1 R01      A891          0        -0.09149000        12.01000000
  2194 lmp_005                 1 R01      A892          0         0.05181000        12.01000000
  2195 lmp_003                 1 R01      A893          0        -0.10009000        12.01000000
  2196 lmp_009                 1 R01      A894          0         0.04551000         1.00800000
  2197 lmp_009                 1 R01      A895          0         0.04551000         1.00800000
  2198 lmp_009                 1 R01      A896          0         0.04551000         1.00800000
  2199 lmp_007                 1 R01      A897          0         0.00531000        12.01000000
  2200 lmp_009                 1 R01      A898          0         0.03971000         1.00800000
  2201 lmp_004                 1 R01      A899          0         0.05571000        12.01000000
  2202 lmp_009                 1 R01      A89a          0         0.01041000         1.00800000
  2203 lmp_004                 1 R01      A89b          0        -0.21059000        12.01000000
  2204 lmp_009                 1 R01      A89c          0         0.05311000         1.00800000
  2205 lmp_009                 1 R01      A89d          0         0.05311000         1.00800000
  2206 lmp_005                 1 R01      A89e          0        -0.04569000        12.01000000
  2207 lmp_005                 1 R01      A89f          0        -0.20379000        12.01000000
  2208 lmp_008                 1 R01      A8a0          0         0.15591000         1.00800000
  2209 lmp_003                 1 R01      A8a1          0        -0.10048000        12.01000000
  2210 lmp_009                 1 R01      A8a2          0         0.02361000         1.00800000
  2211 lmp_009                 1 R01      A8a3          0         0.02361000         1.00800000
  2212 lmp_009                 1 R01      A8a4          0         0.02361000         1.00800000
  2213 lmp_004                 1 R01      A8a5          0         0.19001000        12.01000000
  2214 lmp_003                 1 R01      A8a6          0        -0.17889000        12.01000000
  2215 lmp_009                 1 R01      A8a7          0         0.04121000         1.00800000
  2216 lmp_009                 1 R01      A8a8          0         0.04121000         1.00800000
  2217 lmp_009                 1 R01      A8a9          0         0.04121000         1.00800000
  2218 lmp_005                 1 R01      A8aa          0         0.00401000        12.01000000
  2219 lmp_006                 1 R01      A8ab          0         0.00111000        12.01000000
  2220 lmp_005                 1 R01      A8ac          0        -0.18989000        12.01000000
  2221 lmp_008                 1 R01      A8ad          0         0.14431000         1.00800000
  2222 lmp_005                 1 R01      A8ae          0        -0.04879000        12.01000000
  2223 lmp_007                 1 R01      A8af          0         0.03141000        12.01000000
  2224 lmp_009                 1 R01      A8b0          0         0.03521000         1.00800000
  2225 lmp_007                 1 R01      A8b1          0         0.01591000        12.01000000
  2226 lmp_009                 1 R01      A8b2          0         0.03721000         1.00800000
  2227 lmp_004                 1 R01      A8b3          0         0.02141000        12.01000000
  2228 lmp_009                 1 R01      A8b4          0         0.01911000         1.00800000
  2229 lmp_007                 1 R01      A8b5          0         0.02241000        12.01000000
  2230 lmp_009                 1 R01      A8b6          0         0.03781000         1.00800000
  2231 lmp_007                 1 R01      A8b7          0         0.01411000        12.01000000
  2232 lmp_009                 1 R01      A8b8          0         0.03861000         1.00800000
  2233 lmp_004                 1 R01      A8b9          0         0.01111000        12.01000000
  2234 lmp_009                 1 R01      A8ba          0         0.02341000         1.00800000
  2235 lmp_004                 1 R01      A8bb          0        -0.10289000        12.01000000
  2236 lmp_009                 1 R01      A8bc          0         0.04701000         1.00800000
  2237 lmp_009                 1 R01      A8bd          0         0.04701000         1.00800000
  2238 lmp_005                 1 R01      A8be          0        -0.03099000        12.01000000
  2239 lmp_005                 1 R01      A8bf          0        -0.25069000        12.01000000
  2240 lmp_008                 1 R01      A8c0          0         0.17281000         1.00800000
  2241 lmp_006                 1 R01      A8c1          0         0.02131000        12.01000000
  2242 lmp_005                 1 R01      A8c2          0         0.02031000        12.01000000
  2243 lmp_005                 1 R01      A8c3          0        -0.24969000        12.01000000
  2244 lmp_008                 1 R01      A8c4          0         0.17861000         1.00800000
  2245 lmp_005                 1 R01      A8c5          0        -0.03239000        12.01000000
  2246 lmp_007                 1 R01      A8c6          0         0.03221000        12.01000000
  2247 lmp_009                 1 R01      A8c7          0         0.02561000         1.00800000
  2248 lmp_007                 1 R01      A8c8          0         0.02991000        12.01000000
  2249 lmp_009                 1 R01      A8c9          0         0.02761000         1.00800000
  2250 lmp_004                 1 R01      A8ca          0         0.05471000        12.01000000
  2251 lmp_009                 1 R01      A8cb          0         0.00921000         1.00800000
  2252 lmp_007                 1 R01      A8cc          0         0.00911000        12.01000000
  2253 lmp_009                 1 R01      A8cd          0         0.03851000         1.00800000
  2254 lmp_005                 1 R01      A8ce          0        -0.12349000        12.01000000
  2255 lmp_005                 1 R01      A8cf          0        -0.12549000        12.01000000
  2256 lmp_005                 1 R01      A8d0          0         0.03581000        12.01000000
  2257 lmp_003                 1 R01      A8d1          0        -0.11109000        12.01000000
  2258 lmp_009                 1 R01      A8d2          0         0.04331000         1.00800000
  2259 lmp_009                 1 R01      A8d3          0         0.04331000         1.00800000
  2260 lmp_009                 1 R01      A8d4          0         0.04331000         1.00800000
  2261 lmp_005                 1 R01      A8d5          0        -0.08649000        12.01000000
  2262 lmp_005                 1 R01      A8d6          0        -0.09149000        12.01000000
  2263 lmp_005                 1 R01      A8d7          0         0.05181000        12.01000000
  2264 lmp_003                 1 R01      A8d8          0        -0.10009000        12.01000000
  2265 lmp_009                 1 R01      A8d9          0         0.04551000         1.00800000
  2266 lmp_009                 1 R01      A8da          0         0.04551000         1.00800000
  2267 lmp_009                 1 R01      A8db          0         0.04551000         1.00800000
  2268 lmp_007                 1 R01      A8dc          0         0.00531000        12.01000000
  2269 lmp_009                 1 R01      A8dd          0         0.03971000         1.00800000
  2270 lmp_004                 1 R01      A8de          0         0.05571000        12.01000000
  2271 lmp_009                 1 R01      A8df          0         0.01041000         1.00800000
  2272 lmp_004                 1 R01      A8e0          0        -0.21059000        12.01000000
  2273 lmp_009                 1 R01      A8e1          0         0.05311000         1.00800000
  2274 lmp_009                 1 R01      A8e2          0         0.05311000         1.00800000
  2275 lmp_005                 1 R01      A8e3          0        -0.04569000        12.01000000
  2276 lmp_005                 1 R01      A8e4          0        -0.20379000        12.01000000
  2277 lmp_008                 1 R01      A8e5          0         0.15591000         1.00800000
  2278 lmp_003                 1 R01      A8e6          0        -0.10048000        12.01000000
  2279 lmp_009                 1 R01      A8e7          0         0.02361000         1.00800000
  2280 lmp_009                 1 R01      A8e8          0         0.02361000         1.00800000
  2281 lmp_009                 1 R01      A8e9          0         0.02361000         1.00800000
  2282 lmp_004                 1 R01      A8ea          0         0.19001000        12.01000000
  2283 lmp_003                 1 R01      A8eb          0        -0.17889000        12.01000000
  2284 lmp_009                 1 R01      A8ec          0         0.04121000         1.00800000
  2285 lmp_009                 1 R01      A8ed          0         0.04121000         1.00800000
  2286 lmp_009                 1 R01      A8ee          0         0.04121000         1.00800000
  2287 lmp_005                 1 R01      A8ef          0         0.00401000        12.01000000
  2288 lmp_006                 1 R01      A8f0          0         0.00111000        12.01000000
  2289 lmp_005                 1 R01      A8f1          0        -0.18989000        12.01000000
  2290 lmp_008                 1 R01      A8f2          0         0.14431000         1.00800000
  2291 lmp_005                 1 R01      A8f3          0        -0.04879000        12.01000000
  2292 lmp_007                 1 R01      A8f4          0         0.03141000        12.01000000
  2293 lmp_009                 1 R01      A8f5          0         0.03521000         1.00800000
  2294 lmp_007                 1 R01      A8f6          0         0.01591000        12.01000000
  2295 lmp_009                 1 R01      A8f7          0         0.03721000         1.00800000
  2296 lmp_004                 1 R01      A8f8          0         0.02141000        12.01000000
  2297 lmp_009                 1 R01      A8f9          0         0.01911000         1.00800000
  2298 lmp_007                 1 R01      A8fa          0         0.02241000        12.01000000
  2299 lmp_009                 1 R01      A8fb          0         0.03781000         1.00800000
  2300 lmp_007                 1 R01      A8fc          0         0.01411000        12.01000000
  2301 lmp_009                 1 R01      A8fd          0         0.03861000         1.00800000
  2302 lmp_004                 1 R01      A8fe          0         0.01111000        12.01000000
  2303 lmp_009                 1 R01      A8ff          0         0.02341000         1.00800000
  2304 lmp_004                 1 R01      A900          0        -0.10289000        12.01000000
  2305 lmp_009                 1 R01      A901          0         0.04701000         1.00800000
  2306 lmp_009                 1 R01      A902          0         0.04701000         1.00800000
  2307 lmp_005                 1 R01      A903          0        -0.03099000        12.01000000
  2308 lmp_005                 1 R01      A904          0        -0.25069000        12.01000000
  2309 lmp_008                 1 R01      A905          0         0.17281000         1.00800000
  2310 lmp_006                 1 R01      A906          0         0.02131000        12.01000000
  2311 lmp_005                 1 R01      A907          0         0.02031000        12.01000000
  2312 lmp_005                 1 R01      A908          0        -0.24969000        12.01000000
  2313 lmp_008                 1 R01      A909          0         0.17861000         1.00800000
  2314 lmp_005                 1 R01      A90a          0        -0.03239000        12.01000000
  2315 lmp_007                 1 R01      A90b          0         0.03221000        12.01000000
  2316 lmp_009                 1 R01      A90c          0         0.02561000         1.00800000
  2317 lmp_007                 1 R01      A90d          0         0.02991000        12.01000000
  2318 lmp_009                 1 R01      A90e          0         0.02761000         1.00800000
  2319 lmp_004                 1 R01      A90f          0         0.05471000        12.01000000
  2320 lmp_009                 1 R01      A910          0         0.00921000         1.00800000
  2321 lmp_007                 1 R01      A911          0         0.00911000        12.01000000
  2322 lmp_009                 1 R01      A912          0         0.03851000         1.00800000
  2323 lmp_005                 1 R01      A913          0        -0.12349000        12.01000000
  2324 lmp_005                 1 R01      A914          0        -0.12549000        12.01000000
  2325 lmp_005                 1 R01      A915          0         0.03581000        12.01000000
  2326 lmp_003                 1 R01      A916          0        -0.11109000        12.01000000
  2327 lmp_009                 1 R01      A917          0         0.04331000         1.00800000
  2328 lmp_009                 1 R01      A918          0         0.04331000         1.00800000
  2329 lmp_009                 1 R01      A919          0         0.04331000         1.00800000
  2330 lmp_005                 1 R01      A91a          0        -0.08649000        12.01000000
  2331 lmp_005                 1 R01      A91b          0        -0.09149000        12.01000000
  2332 lmp_005                 1 R01      A91c          0         0.05181000        12.01000000
  2333 lmp_003                 1 R01      A91d          0        -0.10009000        12.01000000
  2334 lmp_009                 1 R01      A91e          0         0.04551000         1.00800000
  2335 lmp_009                 1 R01      A91f          0         0.04551000         1.00800000
  2336 lmp_009                 1 R01      A920          0         0.04551000         1.00800000
  2337 lmp_007                 1 R01      A921          0         0.00531000        12.01000000
  2338 lmp_009                 1 R01      A922          0         0.03971000         1.00800000
  2339 lmp_004                 1 R01      A923          0         0.05571000        12.01000000
  2340 lmp_009                 1 R01      A924          0         0.01041000         1.00800000
  2341 lmp_004                 1 R01      A925          0        -0.21059000        12.01000000
  2342 lmp_009                 1 R01      A926          0         0.05311000         1.00800000
  2343 lmp_009                 1 R01      A927          0         0.05311000         1.00800000
  2344 lmp_005                 1 R01      A928          0        -0.04569000        12.01000000
  2345 lmp_005                 1 R01      A929          0        -0.20379000        12.01000000
  2346 lmp_008                 1 R01      A92a          0         0.15591000         1.00800000
  2347 lmp_003                 1 R01      A92b          0        -0.10048000        12.01000000
  2348 lmp_009                 1 R01      A92c          0         0.02361000         1.00800000
  2349 lmp_009                 1 R01      A92d          0         0.02361000         1.00800000
  2350 lmp_009                 1 R01      A92e          0         0.02361000         1.00800000
  2351 lmp_004                 1 R01      A92f          0         0.19001000        12.01000000
  2352 lmp_003                 1 R01      A930          0        -0.17889000        12.01000000
  2353 lmp_009                 1 R01      A931          0         0.04121000         1.00800000
  2354 lmp_009                 1 R01      A932          0         0.04121000         1.00800000
  2355 lmp_009                 1 R01      A933          0         0.04121000         1.00800000
  2356 lmp_005                 1 R01      A934          0         0.00401000        12.01000000
  2357 lmp_006                 1 R01      A935          0         0.00111000        12.01000000
  2358 lmp_005                 1 R01      A936          0        -0.18989000        12.01000000
  2359 lmp_008                 1 R01      A937          0         0.14431000         1.00800000
  2360 lmp_005                 1 R01      A938          0        -0.04879000        12.01000000
  2361 lmp_007                 1 R01      A939          0         0.03141000        12.01000000
  2362 lmp_009                 1 R01      A93a          0         0.03521000         1.00800000
  2363 lmp_007                 1 R01      A93b          0         0.01591000        12.01000000
  2364 lmp_009                 1 R01      A93c          0         0.03721000         1.00800000
  2365 lmp_004                 1 R01      A93d          0         0.02141000        12.01000000
  2366 lmp_009                 1 R01      A93e          0         0.01911000         1.00800000
  2367 lmp_007                 1 R01      A93f          0         0.02241000        12.01000000
  2368 lmp_009                 1 R01      A940          0         0.03781000         1.00800000
  2369 lmp_007                 1 R01      A941          0         0.01411000        12.01000000
  2370 lmp_009                 1 R01      A942          0         0.03861000         1.00800000
  2371 lmp_004                 1 R01      A943          0         0.01111000        12.01000000
  2372 lmp_009                 1 R01      A944          0         0.02341000         1.00800000
  2373 lmp_004                 1 R01      A945          0        -0.10289000        12.01000000
  2374 lmp_009                 1 R01      A946          0         0.04701000         1.00800000
  2375 lmp_009                 1 R01      A947          0         0.04701000         1.00800000
  2376 lmp_005                 1 R01      A948          0        -0.03099000        12.01000000
  2377 lmp_005                 1 R01      A949          0        -0.25069000        12.01000000
  2378 lmp_008                 1 R01      A94a          0         0.17281000         1.00800000
  2379 lmp_006                 1 R01      A94b          0         0.02131000        12.01000000
  2380 lmp_005                 1 R01      A94c          0         0.02031000        12.01000000
  2381 lmp_005                 1 R01      A94d          0        -0.24969000        12.01000000
  2382 lmp_008                 1 R01      A94e          0         0.17861000         1.00800000
  2383 lmp_005                 1 R01      A94f          0        -0.03239000        12.01000000
  2384 lmp_007                 1 R01      A950          0         0.03221000        12.01000000
  2385 lmp_009                 1 R01      A951          0         0.02561000         1.00800000
  2386 lmp_007                 1 R01      A952          0         0.02991000        12.01000000
  2387 lmp_009                 1 R01      A953          0         0.02761000         1.00800000
  2388 lmp_004                 1 R01      A954          0         0.05471000        12.01000000
  2389 lmp_009                 1 R01      A955          0         0.00921000         1.00800000
  2390 lmp_007                 1 R01      A956          0         0.00911000        12.01000000
  2391 lmp_009                 1 R01      A957          0         0.03851000         1.00800000
  2392 lmp_005                 1 R01      A958          0        -0.12349000        12.01000000
  2393 lmp_005                 1 R01      A959          0        -0.12549000        12.01000000
  2394 lmp_005                 1 R01      A95a          0         0.03581000        12.01000000
  2395 lmp_003                 1 R01      A95b          0        -0.11109000        12.01000000
  2396 lmp_009                 1 R01      A95c          0         0.04331000         1.00800000
  2397 lmp_009                 1 R01      A95d          0         0.04331000         1.00800000
  2398 lmp_009                 1 R01      A95e          0         0.04331000         1.00800000
  2399 lmp_005                 1 R01      A95f          0        -0.08649000        12.01000000
  2400 lmp_005                 1 R01      A960          0        -0.09149000        12.01000000
  2401 lmp_005                 1 R01      A961          0         0.05181000        12.01000000
  2402 lmp_003                 1 R01      A962          0        -0.10009000        12.01000000
  2403 lmp_009                 1 R01      A963          0         0.04551000         1.00800000
  2404 lmp_009                 1 R01      A964          0         0.04551000         1.00800000
  2405 lmp_009                 1 R01      A965          0         0.04551000         1.00800000
  2406 lmp_007                 1 R01      A966          0         0.00531000        12.01000000
  2407 lmp_009                 1 R01      A967          0         0.03971000         1.00800000
  2408 lmp_004                 1 R01      A968          0         0.05571000        12.01000000
  2409 lmp_009                 1 R01      A969          0         0.01041000         1.00800000
  2410 lmp_004                 1 R01      A96a          0        -0.21059000        12.01000000
  2411 lmp_009                 1 R01      A96b          0         0.05311000         1.00800000
  2412 lmp_009                 1 R01      A96c          0         0.05311000         1.00800000
  2413 lmp_005                 1 R01      A96d          0        -0.04569000        12.01000000
  2414 lmp_005                 1 R01      A96e          0        -0.20379000        12.01000000
  2415 lmp_008                 1 R01      A96f          0         0.15591000         1.00800000
  2416 lmp_003                 1 R01      A970          0        -0.10048000        12.01000000
  2417 lmp_009                 1 R01      A971          0         0.02361000         1.00800000
  2418 lmp_009                 1 R01      A972          0         0.02361000         1.00800000
  2419 lmp_009                 1 R01      A973          0         0.02361000         1.00800000
  2420 lmp_004                 1 R01      A974          0         0.19001000        12.01000000
  2421 lmp_003                 1 R01      A975          0        -0.17889000        12.01000000
  2422 lmp_009                 1 R01      A976          0         0.04121000         1.00800000
  2423 lmp_009                 1 R01      A977          0         0.04121000         1.00800000
  2424 lmp_009                 1 R01      A978          0         0.04121000         1.00800000
  2425 lmp_005                 1 R01      A979          0         0.00401000        12.01000000
  2426 lmp_006                 1 R01      A97a          0         0.00111000        12.01000000
  2427 lmp_005                 1 R01      A97b          0        -0.18989000        12.01000000
  2428 lmp_008                 1 R01      A97c          0         0.14431000         1.00800000
  2429 lmp_005                 1 R01      A97d          0        -0.04879000        12.01000000
  2430 lmp_007                 1 R01      A97e          0         0.03141000        12.01000000
  2431 lmp_009                 1 R01      A97f          0         0.03521000         1.00800000
  2432 lmp_007                 1 R01      A980          0         0.01591000        12.01000000
  2433 lmp_009                 1 R01      A981          0         0.03721000         1.00800000
  2434 lmp_004                 1 R01      A982          0         0.02141000        12.01000000
  2435 lmp_009                 1 R01      A983          0         0.01911000         1.00800000
  2436 lmp_007                 1 R01      A984          0         0.02241000        12.01000000
  2437 lmp_009                 1 R01      A985          0         0.03781000         1.00800000
  2438 lmp_007                 1 R01      A986          0         0.01411000        12.01000000
  2439 lmp_009                 1 R01      A987          0         0.03861000         1.00800000
  2440 lmp_004                 1 R01      A988          0         0.01111000        12.01000000
  2441 lmp_009                 1 R01      A989          0         0.02341000         1.00800000
  2442 lmp_004                 1 R01      A98a          0        -0.10289000        12.01000000
  2443 lmp_009                 1 R01      A98b          0         0.04701000         1.00800000
  2444 lmp_009                 1 R01      A98c          0         0.04701000         1.00800000
  2445 lmp_005                 1 R01      A98d          0        -0.03099000        12.01000000
  2446 lmp_005                 1 R01      A98e          0        -0.25069000        12.01000000
  2447 lmp_008                 1 R01      A98f          0         0.17281000         1.00800000
  2448 lmp_006                 1 R01      A990          0         0.02131000        12.01000000
  2449 lmp_005                 1 R01      A991          0         0.02031000        12.01000000
  2450 lmp_005                 1 R01      A992          0        -0.24969000        12.01000000
  2451 lmp_008                 1 R01      A993          0         0.17861000         1.00800000
  2452 lmp_005                 1 R01      A994          0        -0.03239000        12.01000000
  2453 lmp_007                 1 R01      A995          0         0.03221000        12.01000000
  2454 lmp_009                 1 R01      A996          0         0.02561000         1.00800000
  2455 lmp_007                 1 R01      A997          0         0.02991000        12.01000000
  2456 lmp_009                 1 R01      A998          0         0.02761000         1.00800000
  2457 lmp_004                 1 R01      A999          0         0.05471000        12.01000000
  2458 lmp_009                 1 R01      A99a          0         0.00921000         1.00800000
  2459 lmp_007                 1 R01      A99b          0         0.00911000        12.01000000
  2460 lmp_009                 1 R01      A99c          0         0.03851000         1.00800000
  2461 lmp_005                 1 R01      A99d          0        -0.12349000        12.01000000
  2462 lmp_005                 1 R01      A99e          0        -0.12549000        12.01000000
  2463 lmp_005                 1 R01      A99f          0         0.03581000        12.01000000
  2464 lmp_003                 1 R01      A9a0          0        -0.11109000        12.01000000
  2465 lmp_009                 1 R01      A9a1          0         0.04331000         1.00800000
  2466 lmp_009                 1 R01      A9a2          0         0.04331000         1.00800000
  2467 lmp_009                 1 R01      A9a3          0         0.04331000         1.00800000
  2468 lmp_005                 1 R01      A9a4          0        -0.08649000        12.01000000
  2469 lmp_005                 1 R01      A9a5          0        -0.09149000        12.01000000
  2470 lmp_005                 1 R01      A9a6          0         0.05181000        12.01000000
  2471 lmp_003                 1 R01      A9a7          0        -0.10009000        12.01000000
  2472 lmp_009                 1 R01      A9a8          0         0.04551000         1.00800000
  2473 lmp_009                 1 R01      A9a9          0         0.04551000         1.00800000
  2474 lmp_009                 1 R01      A9aa          0         0.04551000         1.00800000
  2475 lmp_007                 1 R01      A9ab          0         0.00531000        12.01000000
  2476 lmp_009                 1 R01      A9ac          0         0.03971000         1.00800000
  2477 lmp_004                 1 R01      A9ad          0         0.05571000        12.01000000
  2478 lmp_009                 1 R01      A9ae          0         0.01041000         1.00800000
  2479 lmp_004                 1 R01      A9af          0        -0.21059000        12.01000000
  2480 lmp_009                 1 R01      A9b0          0         0.05311000         1.00800000
  2481 lmp_009                 1 R01      A9b1          0         0.05311000         1.00800000
  2482 lmp_005                 1 R01      A9b2          0        -0.04569000        12.01000000
  2483 lmp_005                 1 R01      A9b3          0        -0.20379000        12.01000000
  2484 lmp_008                 1 R01      A9b4          0         0.15591000         1.00800000
  2485 lmp_003                 1 R01      A9b5          0        -0.10048000        12.01000000
  2486 lmp_009                 1 R01      A9b6          0         0.02361000         1.00800000
  2487 lmp_009                 1 R01      A9b7          0         0.02361000         1.00800000
  2488 lmp_009                 1 R01      A9b8          0         0.02361000         1.00800000
  2489 lmp_004                 1 R01      A9b9          0         0.19001000        12.01000000
  2490 lmp_003                 1 R01      A9ba          0        -0.17889000        12.01000000
  2491 lmp_009                 1 R01      A9bb          0         0.04121000         1.00800000
  2492 lmp_009                 1 R01      A9bc          0         0.04121000         1.00800000
  2493 lmp_009                 1 R01      A9bd          0         0.04121000         1.00800000
  2494 lmp_005                 1 R01      A9be          0         0.00401000        12.01000000
  2495 lmp_006                 1 R01      A9bf          0         0.00111000        12.01000000
  2496 lmp_005                 1 R01      A9c0          0        -0.18989000        12.01000000
  2497 lmp_008                 1 R01      A9c1          0         0.14431000         1.00800000
  2498 lmp_005                 1 R01      A9c2          0        -0.04879000        12.01000000
  2499 lmp_007                 1 R01      A9c3          0         0.03141000        12.01000000
  2500 lmp_009                 1 R01      A9c4          0         0.03521000         1.00800000
  2501 lmp_007                 1 R01      A9c5          0         0.01591000        12.01000000
  2502 lmp_009                 1 R01      A9c6          0         0.03721000         1.00800000
  2503 lmp_004                 1 R01      A9c7          0         0.02141000        12.01000000
  2504 lmp_009                 1 R01      A9c8          0         0.01911000         1.00800000
  2505 lmp_001                 1 R01      A9c9          0         0.02241000        12.01000000
  2506 lmp_009                 1 R01      A9ca          0         0.03781000         1.00800000
  2507 lmp_001                 1 R01      A9cb          0         0.01411000        12.01000000
  2508 lmp_009                 1 R01      A9cc          0         0.03861000         1.00800000
  2509 lmp_004                 1 R01      A9cd          0         0.01111000        12.01000000
  2510 lmp_009                 1 R01      A9ce          0         0.02341000         1.00800000
  2511 lmp_004                 1 R01      A9cf          0        -0.10289000        12.01000000
  2512 lmp_009                 1 R01      A9d0          0         0.04701000         1.00800000
  2513 lmp_009                 1 R01      A9d1          0         0.04701000         1.00800000
  2514 lmp_005                 1 R01      A9d2          0        -0.03099000        12.01000000
  2515 lmp_005                 1 R01      A9d3          0        -0.25069000        12.01000000
  2516 lmp_008                 1 R01      A9d4          0         0.17281000         1.00800000
  2517 lmp_006                 1 R01      A9d5          0         0.02131000        12.01000000
  2518 lmp_005                 1 R01      A9d6          0         0.02031000        12.01000000
  2519 lmp_005                 1 R01      A9d7          0        -0.24969000        12.01000000
  2520 lmp_008                 1 R01      A9d8          0         0.17861000         1.00800000
  2521 lmp_005                 1 R01      A9d9          0        -0.03239000        12.01000000
  2522 lmp_007                 1 R01      A9da          0         0.03221000        12.01000000
  2523 lmp_009                 1 R01      A9db          0         0.02561000         1.00800000
  2524 lmp_007                 1 R01      A9dc          0         0.02991000        12.01000000
  2525 lmp_009                 1 R01      A9dd          0         0.02761000         1.00800000
  2526 lmp_004                 1 R01      A9de          0         0.05471000        12.01000000
  2527 lmp_009                 1 R01      A9df          0         0.00921000         1.00800000
  2528 lmp_007                 1 R01      A9e0          0         0.00911000        12.01000000
  2529 lmp_009                 1 R01      A9e1          0         0.03851000         1.00800000
  2530 lmp_005                 1 R01      A9e2          0        -0.12349000        12.01000000
  2531 lmp_005                 1 R01      A9e3          0        -0.12549000        12.01000000
  2532 lmp_005                 1 R01      A9e4          0         0.03581000        12.01000000
  2533 lmp_003                 1 R01      A9e5          0        -0.11109000        12.01000000
  2534 lmp_009                 1 R01      A9e6          0         0.04331000         1.00800000
  2535 lmp_009                 1 R01      A9e7          0         0.04331000         1.00800000
  2536 lmp_009                 1 R01      A9e8          0         0.04331000         1.00800000
  2537 lmp_005                 1 R01      A9e9          0        -0.08649000        12.01000000
  2538 lmp_005                 1 R01      A9ea          0        -0.09149000        12.01000000
  2539 lmp_005                 1 R01      A9eb          0         0.05181000        12.01000000
  2540 lmp_003                 1 R01      A9ec          0        -0.10009000        12.01000000
  2541 lmp_009                 1 R01      A9ed          0         0.04551000         1.00800000
  2542 lmp_009                 1 R01      A9ee          0         0.04551000         1.00800000
  2543 lmp_009                 1 R01      A9ef          0         0.04551000         1.00800000
  2544 lmp_007                 1 R01      A9f0          0         0.00531000        12.01000000
  2545 lmp_009                 1 R01      A9f1          0         0.03971000         1.00800000
  2546 lmp_004                 1 R01      A9f2          0         0.05571000        12.01000000
  2547 lmp_009                 1 R01      A9f3          0         0.01041000         1.00800000
  2548 lmp_004                 1 R01      A9f4          0        -0.21059000        12.01000000
  2549 lmp_009                 1 R01      A9f5          0         0.05311000         1.00800000
  2550 lmp_009                 1 R01      A9f6          0         0.05311000         1.00800000
  2551 lmp_005                 1 R01      A9f7          0        -0.04569000        12.01000000
  2552 lmp_005                 1 R01      A9f8          0        -0.20379000        12.01000000
  2553 lmp_008                 1 R01      A9f9          0         0.15591000         1.00800000
  2554 lmp_003                 1 R01      A9fa          0        -0.10048000        12.01000000
  2555 lmp_009                 1 R01      A9fb          0         0.02361000         1.00800000
  2556 lmp_009                 1 R01      A9fc          0         0.02361000         1.00800000
  2557 lmp_009                 1 R01      A9fd          0         0.02361000         1.00800000
  2558 lmp_004                 1 R01      A9fe          0         0.19001000        12.01000000
  2559 lmp_003                 1 R01      A9ff          0        -0.17889000        12.01000000
  2560 lmp_009                 1 R01      Aa00          0         0.04121000         1.00800000
  2561 lmp_009                 1 R01      Aa01          0         0.04121000         1.00800000
  2562 lmp_009                 1 R01      Aa02          0         0.04121000         1.00800000
  2563 lmp_005                 1 R01      Aa03          0         0.00401000        12.01000000
  2564 lmp_006                 1 R01      Aa04          0         0.00111000        12.01000000
  2565 lmp_005                 1 R01      Aa05          0        -0.18989000        12.01000000
  2566 lmp_008                 1 R01      Aa06          0         0.14431000         1.00800000
  2567 lmp_005                 1 R01      Aa07          0        -0.04879000        12.01000000
  2568 lmp_007                 1 R01      Aa08          0         0.03141000        12.01000000
  2569 lmp_009                 1 R01      Aa09          0         0.03521000         1.00800000
  2570 lmp_007                 1 R01      Aa0a          0         0.01591000        12.01000000
  2571 lmp_009                 1 R01      Aa0b          0         0.03721000         1.00800000
  2572 lmp_004                 1 R01      Aa0c          0         0.02141000        12.01000000
  2573 lmp_009                 1 R01      Aa0d          0         0.01911000         1.00800000
  2574 lmp_007                 1 R01      Aa0e          0         0.02241000        12.01000000
  2575 lmp_009                 1 R01      Aa0f          0         0.03781000         1.00800000
  2576 lmp_007                 1 R01      Aa10          0         0.01411000        12.01000000
  2577 lmp_009                 1 R01      Aa11          0         0.03861000         1.00800000
  2578 lmp_004                 1 R01      Aa12          0         0.01111000        12.01000000
  2579 lmp_009                 1 R01      Aa13          0         0.02341000         1.00800000
  2580 lmp_004                 1 R01      Aa14          0        -0.10289000        12.01000000
  2581 lmp_009                 1 R01      Aa15          0         0.04701000         1.00800000
  2582 lmp_009                 1 R01      Aa16          0         0.04701000         1.00800000
  2583 lmp_005                 1 R01      Aa17          0        -0.03099000        12.01000000
  2584 lmp_005                 1 R01      Aa18          0        -0.25069000        12.01000000
  2585 lmp_008                 1 R01      Aa19          0         0.17281000         1.00800000
  2586 lmp_006                 1 R01      Aa1a          0         0.02131000        12.01000000
  2587 lmp_005                 1 R01      Aa1b          0         0.02031000        12.01000000
  2588 lmp_005                 1 R01      Aa1c          0        -0.24969000        12.01000000
  2589 lmp_008                 1 R01      Aa1d          0         0.17861000         1.00800000
  2590 lmp_005                 1 R01      Aa1e          0        -0.03239000        12.01000000
  2591 lmp_007                 1 R01      Aa1f          0         0.03221000        12.01000000
  2592 lmp_009                 1 R01      Aa20          0         0.02561000         1.00800000
  2593 lmp_007                 1 R01      Aa21          0         0.02991000        12.01000000
  2594 lmp_009                 1 R01      Aa22          0         0.02761000         1.00800000
  2595 lmp_004                 1 R01      Aa23          0         0.05471000        12.01000000
  2596 lmp_009                 1 R01      Aa24          0         0.00921000         1.00800000
  2597 lmp_007                 1 R01      Aa25          0         0.00911000        12.01000000
  2598 lmp_009                 1 R01      Aa26          0         0.03851000         1.00800000
  2599 lmp_005                 1 R01      Aa27          0        -0.12349000        12.01000000
  2600 lmp_005                 1 R01      Aa28          0        -0.12549000        12.01000000
  2601 lmp_005                 1 R01      Aa29          0         0.03581000        12.01000000
  2602 lmp_003                 1 R01      Aa2a          0        -0.11109000        12.01000000
  2603 lmp_009                 1 R01      Aa2b          0         0.04331000         1.00800000
  2604 lmp_009                 1 R01      Aa2c          0         0.04331000         1.00800000
  2605 lmp_009                 1 R01      Aa2d          0         0.04331000         1.00800000
  2606 lmp_005                 1 R01      Aa2e          0        -0.08649000        12.01000000
  2607 lmp_005                 1 R01      Aa2f          0        -0.09149000        12.01000000
  2608 lmp_005                 1 R01      Aa30          0         0.05181000        12.01000000
  2609 lmp_003                 1 R01      Aa31          0        -0.10009000        12.01000000
  2610 lmp_009                 1 R01      Aa32          0         0.04551000         1.00800000
  2611 lmp_009                 1 R01      Aa33          0         0.04551000         1.00800000
  2612 lmp_009                 1 R01      Aa34          0         0.04551000         1.00800000
  2613 lmp_007                 1 R01      Aa35          0         0.00531000        12.01000000
  2614 lmp_009                 1 R01      Aa36          0         0.03971000         1.00800000
  2615 lmp_004                 1 R01      Aa37          0         0.05571000        12.01000000
  2616 lmp_009                 1 R01      Aa38          0         0.01041000         1.00800000
  2617 lmp_004                 1 R01      Aa39          0        -0.21059000        12.01000000
  2618 lmp_009                 1 R01      Aa3a          0         0.05311000         1.00800000
  2619 lmp_009                 1 R01      Aa3b          0         0.05311000         1.00800000
  2620 lmp_005                 1 R01      Aa3c          0        -0.04569000        12.01000000
  2621 lmp_005                 1 R01      Aa3d          0        -0.20379000        12.01000000
  2622 lmp_008                 1 R01      Aa3e          0         0.15591000         1.00800000
  2623 lmp_003                 1 R01      Aa3f          0        -0.10048000        12.01000000
  2624 lmp_009                 1 R01      Aa40          0         0.02361000         1.00800000
  2625 lmp_009                 1 R01      Aa41          0         0.02361000         1.00800000
  2626 lmp_009                 1 R01      Aa42          0         0.02361000         1.00800000
  2627 lmp_004                 1 R01      Aa43          0         0.19001000        12.01000000
  2628 lmp_003                 1 R01      Aa44          0        -0.17889000        12.01000000
  2629 lmp_009                 1 R01      Aa45          0         0.04121000         1.00800000
  2630 lmp_009                 1 R01      Aa46          0         0.04121000         1.00800000
  2631 lmp_009                 1 R01      Aa47          0         0.04121000         1.00800000
  2632 lmp_005                 1 R01      Aa48          0         0.00401000        12.01000000
  2633 lmp_006                 1 R01      Aa49          0         0.00111000        12.01000000
  2634 lmp_005                 1 R01      Aa4a          0        -0.18989000        12.01000000
  2635 lmp_008                 1 R01      Aa4b          0         0.14431000         1.00800000
  2636 lmp_005                 1 R01      Aa4c          0        -0.04879000        12.01000000
  2637 lmp_007                 1 R01      Aa4d          0         0.03141000        12.01000000
  2638 lmp_009                 1 R01      Aa4e          0         0.03521000         1.00800000
  2639 lmp_007                 1 R01      Aa4f          0         0.01591000        12.01000000
  2640 lmp_009                 1 R01      Aa50          0         0.03721000         1.00800000
  2641 lmp_004                 1 R01      Aa51          0         0.02141000        12.01000000
  2642 lmp_009                 1 R01      Aa52          0         0.01911000         1.00800000
  2643 lmp_007                 1 R01      Aa53          0         0.02241000        12.01000000
  2644 lmp_009                 1 R01      Aa54          0         0.03781000         1.00800000
  2645 lmp_007                 1 R01      Aa55          0         0.01411000        12.01000000
  2646 lmp_009                 1 R01      Aa56          0         0.03861000         1.00800000
  2647 lmp_004                 1 R01      Aa57          0         0.01111000        12.01000000
  2648 lmp_009                 1 R01      Aa58          0         0.02341000         1.00800000
  2649 lmp_004                 1 R01      Aa59          0        -0.10289000        12.01000000
  2650 lmp_009                 1 R01      Aa5a          0         0.04701000         1.00800000
  2651 lmp_009                 1 R01      Aa5b          0         0.04701000         1.00800000
  2652 lmp_005                 1 R01      Aa5c          0        -0.03099000        12.01000000
  2653 lmp_005                 1 R01      Aa5d          0        -0.25069000        12.01000000
  2654 lmp_008                 1 R01      Aa5e          0         0.17281000         1.00800000
  2655 lmp_006                 1 R01      Aa5f          0         0.02131000        12.01000000
  2656 lmp_005                 1 R01      Aa60          0         0.02031000        12.01000000
  2657 lmp_005                 1 R01      Aa61          0        -0.24969000        12.01000000
  2658 lmp_008                 1 R01      Aa62          0         0.17861000         1.00800000
  2659 lmp_005                 1 R01      Aa63          0        -0.03239000        12.01000000
  2660 lmp_007                 1 R01      Aa64          0         0.03221000        12.01000000
  2661 lmp_009                 1 R01      Aa65          0         0.02561000         1.00800000
  2662 lmp_007                 1 R01      Aa66          0         0.02991000        12.01000000
  2663 lmp_009                 1 R01      Aa67          0         0.02761000         1.00800000
  2664 lmp_004                 1 R01      Aa68          0         0.05471000        12.01000000
  2665 lmp_009                 1 R01      Aa69          0         0.00921000         1.00800000
  2666 lmp_007                 1 R01      Aa6a          0         0.00911000        12.01000000
  2667 lmp_009                 1 R01      Aa6b          0         0.03851000         1.00800000
  2668 lmp_005                 1 R01      Aa6c          0        -0.12349000        12.01000000
  2669 lmp_005                 1 R01      Aa6d          0        -0.12549000        12.01000000
  2670 lmp_005                 1 R01      Aa6e          0         0.03581000        12.01000000
  2671 lmp_003                 1 R01      Aa6f          0        -0.11109000        12.01000000
  2672 lmp_009                 1 R01      Aa70          0         0.04331000         1.00800000
  2673 lmp_009                 1 R01      Aa71          0         0.04331000         1.00800000
  2674 lmp_009                 1 R01      Aa72          0         0.04331000         1.00800000
  2675 lmp_005                 1 R01      Aa73          0        -0.08649000        12.01000000
  2676 lmp_005                 1 R01      Aa74          0        -0.09149000        12.01000000
  2677 lmp_005                 1 R01      Aa75          0         0.05181000        12.01000000
  2678 lmp_003                 1 R01      Aa76          0        -0.10009000        12.01000000
  2679 lmp_009                 1 R01      Aa77          0         0.04551000         1.00800000
  2680 lmp_009                 1 R01      Aa78          0         0.04551000         1.00800000
  2681 lmp_009                 1 R01      Aa79          0         0.04551000         1.00800000
  2682 lmp_007                 1 R01      Aa7a          0         0.00531000        12.01000000
  2683 lmp_009                 1 R01      Aa7b          0         0.03971000         1.00800000
  2684 lmp_004                 1 R01      Aa7c          0         0.05571000        12.01000000
  2685 lmp_009                 1 R01      Aa7d          0         0.01041000         1.00800000
  2686 lmp_004                 1 R01      Aa7e          0        -0.21059000        12.01000000
  2687 lmp_009                 1 R01      Aa7f          0         0.05311000         1.00800000
  2688 lmp_009                 1 R01      Aa80          0         0.05311000         1.00800000
  2689 lmp_005                 1 R01      Aa81          0        -0.04569000        12.01000000
  2690 lmp_005                 1 R01      Aa82          0        -0.20379000        12.01000000
  2691 lmp_008                 1 R01      Aa83          0         0.15591000         1.00800000
  2692 lmp_003                 1 R01      Aa84          0        -0.10048000        12.01000000
  2693 lmp_009                 1 R01      Aa85          0         0.02361000         1.00800000
  2694 lmp_009                 1 R01      Aa86          0         0.02361000         1.00800000
  2695 lmp_009                 1 R01      Aa87          0         0.02361000         1.00800000
  2696 lmp_004                 1 R01      Aa88          0         0.19001000        12.01000000
  2697 lmp_003                 1 R01      Aa89          0        -0.17889000        12.01000000
  2698 lmp_009                 1 R01      Aa8a          0         0.04121000         1.00800000
  2699 lmp_009                 1 R01      Aa8b          0         0.04121000         1.00800000
  2700 lmp_009                 1 R01      Aa8c          0         0.04121000         1.00800000
  2701 lmp_005                 1 R01      Aa8d          0         0.00401000        12.01000000
  2702 lmp_006                 1 R01      Aa8e          0         0.00111000        12.01000000
  2703 lmp_005                 1 R01      Aa8f          0        -0.18989000        12.01000000
  2704 lmp_008                 1 R01      Aa90          0         0.14431000         1.00800000
  2705 lmp_005                 1 R01      Aa91          0        -0.04879000        12.01000000
  2706 lmp_007                 1 R01      Aa92          0         0.03141000        12.01000000
  2707 lmp_009                 1 R01      Aa93          0         0.03521000         1.00800000
  2708 lmp_007                 1 R01      Aa94          0         0.01591000        12.01000000
  2709 lmp_009                 1 R01      Aa95          0         0.03721000         1.00800000
  2710 lmp_004                 1 R01      Aa96          0         0.02141000        12.01000000
  2711 lmp_009                 1 R01      Aa97          0         0.01911000         1.00800000
  2712 lmp_007                 1 R01      Aa98          0         0.02241000        12.01000000
  2713 lmp_009                 1 R01      Aa99          0         0.03781000         1.00800000
  2714 lmp_007                 1 R01      Aa9a          0         0.01411000        12.01000000
  2715 lmp_009                 1 R01      Aa9b          0         0.03861000         1.00800000
  2716 lmp_004                 1 R01      Aa9c          0         0.01111000        12.01000000
  2717 lmp_009                 1 R01      Aa9d          0         0.02341000         1.00800000
  2718 lmp_004                 1 R01      Aa9e          0        -0.10289000        12.01000000
  2719 lmp_009                 1 R01      Aa9f          0         0.04701000         1.00800000
  2720 lmp_009                 1 R01      Aaa0          0         0.04701000         1.00800000
  2721 lmp_005                 1 R01      Aaa1          0        -0.03099000        12.01000000
  2722 lmp_005                 1 R01      Aaa2          0        -0.25069000        12.01000000
  2723 lmp_008                 1 R01      Aaa3          0         0.17281000         1.00800000
  2724 lmp_006                 1 R01      Aaa4          0         0.02131000        12.01000000
  2725 lmp_005                 1 R01      Aaa5          0         0.02031000        12.01000000
  2726 lmp_005                 1 R01      Aaa6          0        -0.24969000        12.01000000
  2727 lmp_008                 1 R01      Aaa7          0         0.17861000         1.00800000
  2728 lmp_005                 1 R01      Aaa8          0        -0.03239000        12.01000000
  2729 lmp_007                 1 R01      Aaa9          0         0.03221000        12.01000000
  2730 lmp_009                 1 R01      Aaaa          0         0.02561000         1.00800000
  2731 lmp_007                 1 R01      Aaab          0         0.02991000        12.01000000
  2732 lmp_009                 1 R01      Aaac          0         0.02761000         1.00800000
  2733 lmp_004                 1 R01      Aaad          0         0.05471000        12.01000000
  2734 lmp_009                 1 R01      Aaae          0         0.00921000         1.00800000
  2735 lmp_007                 1 R01      Aaaf          0         0.00911000        12.01000000
  2736 lmp_009                 1 R01      Aab0          0         0.03851000         1.00800000
  2737 lmp_005                 1 R01      Aab1          0        -0.12349000        12.01000000
  2738 lmp_005                 1 R01      Aab2          0        -0.12549000        12.01000000
  2739 lmp_005                 1 R01      Aab3          0         0.03581000        12.01000000
  2740 lmp_003                 1 R01      Aab4          0        -0.11109000        12.01000000
  2741 lmp_009                 1 R01      Aab5          0         0.04331000         1.00800000
  2742 lmp_009                 1 R01      Aab6          0         0.04331000         1.00800000
  2743 lmp_009                 1 R01      Aab7          0         0.04331000         1.00800000
  2744 lmp_005                 1 R01      Aab8          0        -0.08649000        12.01000000
  2745 lmp_005                 1 R01      Aab9          0        -0.09149000        12.01000000
  2746 lmp_005                 1 R01      Aaba          0         0.05181000        12.01000000
  2747 lmp_003                 1 R01      Aabb          0        -0.10009000        12.01000000
  2748 lmp_009                 1 R01      Aabc          0         0.04551000         1.00800000
  2749 lmp_009                 1 R01      Aabd          0         0.04551000         1.00800000
  2750 lmp_009                 1 R01      Aabe          0         0.04551000         1.00800000
  2751 lmp_007                 1 R01      Aabf          0         0.00531000        12.01000000
  2752 lmp_009                 1 R01      Aac0          0         0.03971000         1.00800000
  2753 lmp_004                 1 R01      Aac1          0         0.05571000        12.01000000
  2754 lmp_009                 1 R01      Aac2          0         0.01041000         1.00800000
  2755 lmp_004                 1 R01      Aac3          0        -0.21059000        12.01000000
  2756 lmp_009                 1 R01      Aac4          0         0.05311000         1.00800000
  2757 lmp_009                 1 R01      Aac5          0         0.05311000         1.00800000
  2758 lmp_005                 1 R01      Aac6          0        -0.04569000        12.01000000
  2759 lmp_005                 1 R01      Aac7          0        -0.20379000        12.01000000
  2760 lmp_008                 1 R01      Aac8          0         0.15591000         1.00800000
  2761 lmp_003                 1 R01      Aac9          0        -0.10048000        12.01000000
  2762 lmp_009                 1 R01      Aaca          0         0.02361000         1.00800000
  2763 lmp_009                 1 R01      Aacb          0         0.02361000         1.00800000
  2764 lmp_009                 1 R01      Aacc          0         0.02361000         1.00800000
  2765 lmp_004                 1 R01      Aacd          0         0.19001000        12.01000000
  2766 lmp_003                 1 R01      Aace          0        -0.17889000        12.01000000
  2767 lmp_009                 1 R01      Aacf          0         0.04121000         1.00800000
  2768 lmp_009                 1 R01      Aad0          0         0.04121000         1.00800000
  2769 lmp_009                 1 R01      Aad1          0         0.04121000         1.00800000
  2770 lmp_005                 1 R01      Aad2          0         0.00401000        12.01000000
  2771 lmp_006                 1 R01      Aad3          0         0.00111000        12.01000000
  2772 lmp_005                 1 R01      Aad4          0        -0.18989000        12.01000000
  2773 lmp_008                 1 R01      Aad5          0         0.14431000         1.00800000
  2774 lmp_005                 1 R01      Aad6          0        -0.04879000        12.01000000
  2775 lmp_007                 1 R01      Aad7          0         0.03141000        12.01000000
  2776 lmp_009                 1 R01      Aad8          0         0.03521000         1.00800000
  2777 lmp_007                 1 R01      Aad9          0         0.01591000        12.01000000
  2778 lmp_009                 1 R01      Aada          0         0.03721000         1.00800000
  2779 lmp_004                 1 R01      Aadb          0         0.02141000        12.01000000
  2780 lmp_009                 1 R01      Aadc          0         0.01911000         1.00800000
  2781 lmp_007                 1 R01      Aadd          0         0.02241000        12.01000000
  2782 lmp_009                 1 R01      Aade          0         0.03781000         1.00800000
  2783 lmp_007                 1 R01      Aadf          0         0.01411000        12.01000000
  2784 lmp_009                 1 R01      Aae0          0         0.03861000         1.00800000
  2785 lmp_004                 1 R01      Aae1          0         0.01111000        12.01000000
  2786 lmp_009                 1 R01      Aae2          0         0.02341000         1.00800000
  2787 lmp_004                 1 R01      Aae3          0        -0.10289000        12.01000000
  2788 lmp_009                 1 R01      Aae4          0         0.04701000         1.00800000
  2789 lmp_009                 1 R01      Aae5          0         0.04701000         1.00800000
  2790 lmp_005                 1 R01      Aae6          0        -0.03099000        12.01000000
  2791 lmp_005                 1 R01      Aae7          0        -0.25069000        12.01000000
  2792 lmp_008                 1 R01      Aae8          0         0.17281000         1.00800000
  2793 lmp_006                 1 R01      Aae9          0         0.02131000        12.01000000
  2794 lmp_005                 1 R01      Aaea          0         0.02031000        12.01000000
  2795 lmp_005                 1 R01      Aaeb          0        -0.24969000        12.01000000
  2796 lmp_008                 1 R01      Aaec          0         0.17861000         1.00800000
  2797 lmp_005                 1 R01      Aaed          0        -0.03239000        12.01000000
  2798 lmp_007                 1 R01      Aaee          0         0.03221000        12.01000000
  2799 lmp_009                 1 R01      Aaef          0         0.02561000         1.00800000
  2800 lmp_007                 1 R01      Aaf0          0         0.02991000        12.01000000
  2801 lmp_009                 1 R01      Aaf1          0         0.02761000         1.00800000
  2802 lmp_004                 1 R01      Aaf2          0         0.05471000        12.01000000
  2803 lmp_009                 1 R01      Aaf3          0         0.00921000         1.00800000
  2804 lmp_007                 1 R01      Aaf4          0         0.00911000        12.01000000
  2805 lmp_009                 1 R01      Aaf5          0         0.03851000         1.00800000
  2806 lmp_005                 1 R01      Aaf6          0        -0.12349000        12.01000000
  2807 lmp_005                 1 R01      Aaf7          0        -0.12549000        12.01000000
  2808 lmp_005                 1 R01      Aaf8          0         0.03581000        12.01000000
  2809 lmp_003                 1 R01      Aaf9          0        -0.11109000        12.01000000
  2810 lmp_009                 1 R01      Aafa          0         0.04331000         1.00800000
  2811 lmp_009                 1 R01      Aafb          0         0.04331000         1.00800000
  2812 lmp_009                 1 R01      Aafc          0         0.04331000         1.00800000
  2813 lmp_002                 1 R01      Aafd          0        -0.08649000        12.01000000
  2814 lmp_002                 1 R01      Aafe          0        -0.09149000        12.01000000
  2815 lmp_005                 1 R01      Aaff          0         0.05181000        12.01000000
  2816 lmp_003                 1 R01      Ab00          0        -0.10009000        12.01000000
  2817 lmp_009                 1 R01      Ab01          0         0.04551000         1.00800000
  2818 lmp_009                 1 R01      Ab02          0         0.04551000         1.00800000
  2819 lmp_009                 1 R01      Ab03          0         0.04551000         1.00800000
  2820 lmp_007                 1 R01      Ab04          0         0.00531000        12.01000000
  2821 lmp_009                 1 R01      Ab05          0         0.03971000         1.00800000
  2822 lmp_004                 1 R01      Ab06          0         0.05571000        12.01000000
  2823 lmp_009                 1 R01      Ab07          0         0.01041000         1.00800000
  2824 lmp_004                 1 R01      Ab08          0        -0.21059000        12.01000000
  2825 lmp_009                 1 R01      Ab09          0         0.05311000         1.00800000
  2826 lmp_009                 1 R01      Ab0a          0         0.05311000         1.00800000
  2827 lmp_005                 1 R01      Ab0b          0        -0.04569000        12.01000000
  2828 lmp_005                 1 R01      Ab0c          0        -0.20379000        12.01000000
  2829 lmp_008                 1 R01      Ab0d          0         0.15591000         1.00800000
  2830 lmp_003                 1 R01      Ab0e          0        -0.10048000        12.01000000
  2831 lmp_009                 1 R01      Ab0f          0         0.02361000         1.00800000
  2832 lmp_009                 1 R01      Ab10          0         0.02361000         1.00800000
  2833 lmp_009                 1 R01      Ab11          0         0.02361000         1.00800000
  2834 lmp_004                 1 R01      Ab12          0         0.19001000        12.01000000
  2835 lmp_003                 1 R01      Ab13          0        -0.17889000        12.01000000
  2836 lmp_009                 1 R01      Ab14          0         0.04121000         1.00800000
  2837 lmp_009                 1 R01      Ab15          0         0.04121000         1.00800000
  2838 lmp_009                 1 R01      Ab16          0         0.04121000         1.00800000
  2839 lmp_005                 1 R01      Ab17          0         0.00401000        12.01000000
  2840 lmp_006                 1 R01      Ab18          0         0.00111000        12.01000000
  2841 lmp_005                 1 R01      Ab19          0        -0.18989000        12.01000000
  2842 lmp_008                 1 R01      Ab1a          0         0.14431000         1.00800000
  2843 lmp_005                 1 R01      Ab1b          0        -0.04879000        12.01000000
  2844 lmp_007                 1 R01      Ab1c          0         0.03141000        12.01000000
  2845 lmp_009                 1 R01      Ab1d          0         0.03521000         1.00800000
  2846 lmp_007                 1 R01      Ab1e          0         0.01591000        12.01000000
  2847 lmp_009                 1 R01      Ab1f          0         0.03721000         1.00800000
  2848 lmp_004                 1 R01      Ab20          0         0.02141000        12.01000000
  2849 lmp_009                 1 R01      Ab21          0         0.01911000         1.00800000
  2850 lmp_007                 1 R01      Ab22          0         0.02241000        12.01000000
  2851 lmp_009                 1 R01      Ab23          0         0.03781000         1.00800000
  2852 lmp_007                 1 R01      Ab24          0         0.01411000        12.01000000
  2853 lmp_009                 1 R01      Ab25          0         0.03861000         1.00800000
  2854 lmp_004                 1 R01      Ab26          0         0.01111000        12.01000000
  2855 lmp_009                 1 R01      Ab27          0         0.02341000         1.00800000
  2856 lmp_004                 1 R01      Ab28          0        -0.10289000        12.01000000
  2857 lmp_009                 1 R01      Ab29          0         0.04701000         1.00800000
  2858 lmp_009                 1 R01      Ab2a          0         0.04701000         1.00800000
  2859 lmp_005                 1 R01      Ab2b          0        -0.03099000        12.01000000
  2860 lmp_005                 1 R01      Ab2c          0        -0.25069000        12.01000000
  2861 lmp_008                 1 R01      Ab2d          0         0.17281000         1.00800000
  2862 lmp_006                 1 R01      Ab2e          0         0.02131000        12.01000000
  2863 lmp_005                 1 R01      Ab2f          0         0.02031000        12.01000000
  2864 lmp_005                 1 R01      Ab30          0        -0.24969000        12.01000000
  2865 lmp_008                 1 R01      Ab31          0         0.17861000         1.00800000
  2866 lmp_005                 1 R01      Ab32          0        -0.03239000        12.01000000
  2867 lmp_007                 1 R01      Ab33          0         0.03221000        12.01000000
  2868 lmp_009                 1 R01      Ab34          0         0.02561000         1.00800000
  2869 lmp_007                 1 R01      Ab35          0         0.02991000        12.01000000
  2870 lmp_009                 1 R01      Ab36          0         0.02761000         1.00800000
  2871 lmp_004                 1 R01      Ab37          0         0.05471000        12.01000000
  2872 lmp_009                 1 R01      Ab38          0         0.00921000         1.00800000
  2873 lmp_007                 1 R01      Ab39          0         0.00911000        12.01000000
  2874 lmp_009                 1 R01      Ab3a          0         0.03851000         1.00800000
  2875 lmp_005                 1 R01      Ab3b          0        -0.12349000        12.01000000
  2876 lmp_005                 1 R01      Ab3c          0        -0.12549000        12.01000000
  2877 lmp_005                 1 R01      Ab3d          0         0.03581000        12.01000000
  2878 lmp_003                 1 R01      Ab3e          0        -0.11109000        12.01000000
  2879 lmp_009                 1 R01      Ab3f          0         0.04331000         1.00800000
  2880 lmp_009                 1 R01      Ab40          0         0.04331000         1.00800000
  2881 lmp_009                 1 R01      Ab41          0         0.04331000         1.00800000
  2882 lmp_005                 1 R01      Ab42          0        -0.08649000        12.01000000
  2883 lmp_005                 1 R01      Ab43          0        -0.09149000        12.01000000
  2884 lmp_005                 1 R01      Ab44          0         0.05181000        12.01000000
  2885 lmp_003                 1 R01      Ab45          0        -0.10009000        12.01000000
  2886 lmp_009                 1 R01      Ab46          0         0.04551000         1.00800000
  2887 lmp_009                 1 R01      Ab47          0         0.04551000         1.00800000
  2888 lmp_009                 1 R01      Ab48          0         0.04551000         1.00800000
  2889 lmp_007                 1 R01      Ab49          0         0.00531000        12.01000000
  2890 lmp_009                 1 R01      Ab4a          0         0.03971000         1.00800000
  2891 lmp_004                 1 R01      Ab4b          0         0.05571000        12.01000000
  2892 lmp_009                 1 R01      Ab4c          0         0.01041000         1.00800000
  2893 lmp_004                 1 R01      Ab4d          0        -0.21059000        12.01000000
  2894 lmp_009                 1 R01      Ab4e          0         0.05311000         1.00800000
  2895 lmp_009                 1 R01      Ab4f          0         0.05311000         1.00800000
  2896 lmp_005                 1 R01      Ab50          0        -0.04569000        12.01000000
  2897 lmp_005                 1 R01      Ab51          0        -0.20379000        12.01000000
  2898 lmp_008                 1 R01      Ab52          0         0.15591000         1.00800000
  2899 lmp_003                 1 R01      Ab53          0        -0.10048000        12.01000000
  2900 lmp_009                 1 R01      Ab54          0         0.02361000         1.00800000
  2901 lmp_009                 1 R01      Ab55          0         0.02361000         1.00800000
  2902 lmp_009                 1 R01      Ab56          0         0.02361000         1.00800000
  2903 lmp_004                 1 R01      Ab57          0         0.19001000        12.01000000
  2904 lmp_003                 1 R01      Ab58          0        -0.17889000        12.01000000
  2905 lmp_009                 1 R01      Ab59          0         0.04121000         1.00800000
  2906 lmp_009                 1 R01      Ab5a          0         0.04121000         1.00800000
  2907 lmp_009                 1 R01      Ab5b          0         0.04121000         1.00800000
  2908 lmp_005                 1 R01      Ab5c          0         0.00401000        12.01000000
  2909 lmp_006                 1 R01      Ab5d          0         0.00111000        12.01000000
  2910 lmp_005                 1 R01      Ab5e          0        -0.18989000        12.01000000
  2911 lmp_008                 1 R01      Ab5f          0         0.14431000         1.00800000
  2912 lmp_005                 1 R01      Ab60          0        -0.04879000        12.01000000
  2913 lmp_007                 1 R01      Ab61          0         0.03141000        12.01000000
  2914 lmp_009                 1 R01      Ab62          0         0.03521000         1.00800000
  2915 lmp_007                 1 R01      Ab63          0         0.01591000        12.01000000
  2916 lmp_009                 1 R01      Ab64          0         0.03721000         1.00800000
  2917 lmp_004                 1 R01      Ab65          0         0.02141000        12.01000000
  2918 lmp_009                 1 R01      Ab66          0         0.01911000         1.00800000
  2919 lmp_007                 1 R01      Ab67          0         0.02241000        12.01000000
  2920 lmp_009                 1 R01      Ab68          0         0.03781000         1.00800000
  2921 lmp_007                 1 R01      Ab69          0         0.01411000        12.01000000
  2922 lmp_009                 1 R01      Ab6a          0         0.03861000         1.00800000
  2923 lmp_004                 1 R01      Ab6b          0         0.01111000        12.01000000
  2924 lmp_009                 1 R01      Ab6c          0         0.02341000         1.00800000
  2925 lmp_004                 1 R01      Ab6d          0        -0.10289000        12.01000000
  2926 lmp_009                 1 R01      Ab6e          0         0.04701000         1.00800000
  2927 lmp_009                 1 R01      Ab6f          0         0.04701000         1.00800000
  2928 lmp_005                 1 R01      Ab70          0        -0.03099000        12.01000000
  2929 lmp_005                 1 R01      Ab71          0        -0.25069000        12.01000000
  2930 lmp_008                 1 R01      Ab72          0         0.17281000         1.00800000
  2931 lmp_006                 1 R01      Ab73          0         0.02131000        12.01000000
  2932 lmp_005                 1 R01      Ab74          0         0.02031000        12.01000000
  2933 lmp_005                 1 R01      Ab75          0        -0.24969000        12.01000000
  2934 lmp_008                 1 R01      Ab76          0         0.17861000         1.00800000
  2935 lmp_005                 1 R01      Ab77          0        -0.03239000        12.01000000
  2936 lmp_007                 1 R01      Ab78          0         0.03221000        12.01000000
  2937 lmp_009                 1 R01      Ab79          0         0.02561000         1.00800000
  2938 lmp_007                 1 R01      Ab7a          0         0.02991000        12.01000000
  2939 lmp_009                 1 R01      Ab7b          0         0.02761000         1.00800000
  2940 lmp_004                 1 R01      Ab7c          0         0.05471000        12.01000000
  2941 lmp_009                 1 R01      Ab7d          0         0.00921000         1.00800000
  2942 lmp_007                 1 R01      Ab7e          0         0.00911000        12.01000000
  2943 lmp_009                 1 R01      Ab7f          0         0.03851000         1.00800000
  2944 lmp_005                 1 R01      Ab80          0        -0.12349000        12.01000000
  2945 lmp_005                 1 R01      Ab81          0        -0.12549000        12.01000000
  2946 lmp_005                 1 R01      Ab82          0         0.03581000        12.01000000
  2947 lmp_003                 1 R01      Ab83          0        -0.11109000        12.01000000
  2948 lmp_009                 1 R01      Ab84          0         0.04331000         1.00800000
  2949 lmp_009                 1 R01      Ab85          0         0.04331000         1.00800000
  2950 lmp_009                 1 R01      Ab86          0         0.04331000         1.00800000
  2951 lmp_005                 1 R01      Ab87          0        -0.08649000        12.01000000
  2952 lmp_005                 1 R01      Ab88          0        -0.09149000        12.01000000
  2953 lmp_005                 1 R01      Ab89          0         0.05181000        12.01000000
  2954 lmp_003                 1 R01      Ab8a          0        -0.10009000        12.01000000
  2955 lmp_009                 1 R01      Ab8b          0         0.04551000         1.00800000
  2956 lmp_009                 1 R01      Ab8c          0         0.04551000         1.00800000
  2957 lmp_009                 1 R01      Ab8d          0         0.04551000         1.00800000
  2958 lmp_007                 1 R01      Ab8e          0         0.00531000        12.01000000
  2959 lmp_009                 1 R01      Ab8f          0         0.03971000         1.00800000
  2960 lmp_004                 1 R01      Ab90          0         0.05571000        12.01000000
  2961 lmp_009                 1 R01      Ab91          0         0.01041000         1.00800000
  2962 lmp_004                 1 R01      Ab92          0        -0.21059000        12.01000000
  2963 lmp_009                 1 R01      Ab93          0         0.05311000         1.00800000
  2964 lmp_009                 1 R01      Ab94          0         0.05311000         1.00800000
  2965 lmp_005                 1 R01      Ab95          0        -0.04569000        12.01000000
  2966 lmp_005                 1 R01      Ab96          0        -0.20379000        12.01000000
  2967 lmp_008                 1 R01      Ab97          0         0.15591000         1.00800000
  2968 lmp_003                 1 R01      Ab98          0        -0.10048000        12.01000000
  2969 lmp_009                 1 R01      Ab99          0         0.02361000         1.00800000
  2970 lmp_009                 1 R01      Ab9a          0         0.02361000         1.00800000
  2971 lmp_009                 1 R01      Ab9b          0         0.02361000         1.00800000
  2972 lmp_004                 1 R01      Ab9c          0         0.19001000        12.01000000
  2973 lmp_003                 1 R01      Ab9d          0        -0.17889000        12.01000000
  2974 lmp_009                 1 R01      Ab9e          0         0.04121000         1.00800000
  2975 lmp_009                 1 R01      Ab9f          0         0.04121000         1.00800000
  2976 lmp_009                 1 R01      Aba0          0         0.04121000         1.00800000
  2977 lmp_005                 1 R01      Aba1          0         0.00401000        12.01000000
  2978 lmp_006                 1 R01      Aba2          0         0.00111000        12.01000000
  2979 lmp_005                 1 R01      Aba3          0        -0.18989000        12.01000000
  2980 lmp_008                 1 R01      Aba4          0         0.14431000         1.00800000
  2981 lmp_005                 1 R01      Aba5          0        -0.04879000        12.01000000
  2982 lmp_007                 1 R01      Aba6          0         0.03141000        12.01000000
  2983 lmp_009                 1 R01      Aba7          0         0.03521000         1.00800000
  2984 lmp_007                 1 R01      Aba8          0         0.01591000        12.01000000
  2985 lmp_009                 1 R01      Aba9          0         0.03721000         1.00800000
  2986 lmp_004                 1 R01      Abaa          0         0.02141000        12.01000000
  2987 lmp_009                 1 R01      Abab          0         0.01911000         1.00800000
  2988 lmp_007                 1 R01      Abac          0         0.02241000        12.01000000
  2989 lmp_009                 1 R01      Abad          0         0.03781000         1.00800000
  2990 lmp_007                 1 R01      Abae          0         0.01411000        12.01000000
  2991 lmp_009                 1 R01      Abaf          0         0.03861000         1.00800000
  2992 lmp_004                 1 R01      Abb0          0         0.01111000        12.01000000
  2993 lmp_009                 1 R01      Abb1          0         0.02341000         1.00800000
  2994 lmp_004                 1 R01      Abb2          0        -0.10289000        12.01000000
  2995 lmp_009                 1 R01      Abb3          0         0.04701000         1.00800000
  2996 lmp_009                 1 R01      Abb4          0         0.04701000         1.00800000
  2997 lmp_005                 1 R01      Abb5          0        -0.03099000        12.01000000
  2998 lmp_005                 1 R01      Abb6          0        -0.25069000        12.01000000
  2999 lmp_008                 1 R01      Abb7          0         0.17281000         1.00800000
  3000 lmp_006                 1 R01      Abb8          0         0.02131000        12.01000000
  3001 lmp_005                 1 R01      Abb9          0         0.02031000        12.01000000
  3002 lmp_005                 1 R01      Abba          0        -0.24969000        12.01000000
  3003 lmp_008                 1 R01      Abbb          0         0.17861000         1.00800000
  3004 lmp_005                 1 R01      Abbc          0        -0.03239000        12.01000000
  3005 lmp_007                 1 R01      Abbd          0         0.03221000        12.01000000
  3006 lmp_009                 1 R01      Abbe          0         0.02561000         1.00800000
  3007 lmp_007                 1 R01      Abbf          0         0.02991000        12.01000000
  3008 lmp_009                 1 R01      Abc0          0         0.02761000         1.00800000
  3009 lmp_004                 1 R01      Abc1          0         0.05471000        12.01000000
  3010 lmp_009                 1 R01      Abc2          0         0.00921000         1.00800000
  3011 lmp_007                 1 R01      Abc3          0         0.00911000        12.01000000
  3012 lmp_009                 1 R01      Abc4          0         0.03851000         1.00800000
  3013 lmp_005                 1 R01      Abc5          0        -0.12349000        12.01000000
  3014 lmp_005                 1 R01      Abc6          0        -0.12549000        12.01000000
  3015 lmp_005                 1 R01      Abc7          0         0.03581000        12.01000000
  3016 lmp_003                 1 R01      Abc8          0        -0.11109000        12.01000000
  3017 lmp_009                 1 R01      Abc9          0         0.04331000         1.00800000
  3018 lmp_009                 1 R01      Abca          0         0.04331000         1.00800000
  3019 lmp_009                 1 R01      Abcb          0         0.04331000         1.00800000
  3020 lmp_005                 1 R01      Abcc          0        -0.08649000        12.01000000
  3021 lmp_005                 1 R01      Abcd          0        -0.09149000        12.01000000
  3022 lmp_005                 1 R01      Abce          0         0.05181000        12.01000000
  3023 lmp_003                 1 R01      Abcf          0        -0.10009000        12.01000000
  3024 lmp_009                 1 R01      Abd0          0         0.04551000         1.00800000
  3025 lmp_009                 1 R01      Abd1          0         0.04551000         1.00800000
  3026 lmp_009                 1 R01      Abd2          0         0.04551000         1.00800000
  3027 lmp_007                 1 R01      Abd3          0         0.00531000        12.01000000
  3028 lmp_009                 1 R01      Abd4          0         0.03971000         1.00800000
  3029 lmp_004                 1 R01      Abd5          0         0.05571000        12.01000000
  3030 lmp_009                 1 R01      Abd6          0         0.01041000         1.00800000
  3031 lmp_004                 1 R01      Abd7          0        -0.21059000        12.01000000
  3032 lmp_009                 1 R01      Abd8          0         0.05311000         1.00800000
  3033 lmp_009                 1 R01      Abd9          0         0.05311000         1.00800000
  3034 lmp_005                 1 R01      Abda          0        -0.04569000        12.01000000
  3035 lmp_005                 1 R01      Abdb          0        -0.20379000        12.01000000
  3036 lmp_008                 1 R01      Abdc          0         0.15591000         1.00800000
  3037 lmp_003                 1 R01      Abdd          0        -0.10048000        12.01000000
  3038 lmp_009                 1 R01      Abde          0         0.02361000         1.00800000
  3039 lmp_009                 1 R01      Abdf          0         0.02361000         1.00800000
  3040 lmp_009                 1 R01      Abe0          0         0.02361000         1.00800000
  3041 lmp_004                 1 R01      Abe1          0         0.19001000        12.01000000
  3042 lmp_003                 1 R01      Abe2          0        -0.17889000        12.01000000
  3043 lmp_009                 1 R01      Abe3          0         0.04121000         1.00800000
  3044 lmp_009                 1 R01      Abe4          0         0.04121000         1.00800000
  3045 lmp_009                 1 R01      Abe5          0         0.04121000         1.00800000
  3046 lmp_005                 1 R01      Abe6          0         0.00401000        12.01000000
  3047 lmp_006                 1 R01      Abe7          0         0.00111000        12.01000000
  3048 lmp_005                 1 R01      Abe8          0        -0.18989000        12.01000000
  3049 lmp_008                 1 R01      Abe9          0         0.14431000         1.00800000
  3050 lmp_005                 1 R01      Abea          0        -0.04879000        12.01000000
  3051 lmp_007                 1 R01      Abeb          0         0.03141000        12.01000000
  3052 lmp_009                 1 R01      Abec          0         0.03521000         1.00800000
  3053 lmp_007                 1 R01      Abed          0         0.01591000        12.01000000
  3054 lmp_009                 1 R01      Abee          0         0.03721000         1.00800000
  3055 lmp_004                 1 R01      Abef          0         0.02141000        12.01000000
  3056 lmp_009                 1 R01      Abf0          0         0.01911000         1.00800000
  3057 lmp_007                 1 R01      Abf1          0         0.02241000        12.01000000
  3058 lmp_009                 1 R01      Abf2          0         0.03781000         1.00800000
  3059 lmp_007                 1 R01      Abf3          0         0.01411000        12.01000000
  3060 lmp_009                 1 R01      Abf4          0         0.03861000         1.00800000
  3061 lmp_004                 1 R01      Abf5          0         0.01111000        12.01000000
  3062 lmp_009                 1 R01      Abf6          0         0.02341000         1.00800000
  3063 lmp_004                 1 R01      Abf7          0        -0.10289000        12.01000000
  3064 lmp_009                 1 R01      Abf8          0         0.04701000         1.00800000
  3065 lmp_009                 1 R01      Abf9          0         0.04701000         1.00800000
  3066 lmp_005                 1 R01      Abfa          0        -0.03099000        12.01000000
  3067 lmp_005                 1 R01      Abfb          0        -0.25069000        12.01000000
  3068 lmp_008                 1 R01      Abfc          0         0.17281000         1.00800000
  3069 lmp_006                 1 R01      Abfd          0         0.02131000        12.01000000
  3070 lmp_005                 1 R01      Abfe          0         0.02031000        12.01000000
  3071 lmp_005                 1 R01      Abff          0        -0.24969000        12.01000000
  3072 lmp_008                 1 R01      Ac00          0         0.17861000         1.00800000
  3073 lmp_005                 1 R01      Ac01          0        -0.03239000        12.01000000
  3074 lmp_007                 1 R01      Ac02          0         0.03221000        12.01000000
  3075 lmp_009                 1 R01      Ac03          0         0.02561000         1.00800000
  3076 lmp_007                 1 R01      Ac04          0         0.02991000        12.01000000
  3077 lmp_009                 1 R01      Ac05          0         0.02761000         1.00800000
  3078 lmp_004                 1 R01      Ac06          0         0.05471000        12.01000000
  3079 lmp_009                 1 R01      Ac07          0         0.00921000         1.00800000
  3080 lmp_007                 1 R01      Ac08          0         0.00911000        12.01000000
  3081 lmp_009                 1 R01      Ac09          0         0.03851000         1.00800000
  3082 lmp_005                 1 R01      Ac0a          0        -0.12349000        12.01000000
  3083 lmp_005                 1 R01      Ac0b          0        -0.12549000        12.01000000
  3084 lmp_005                 1 R01      Ac0c          0         0.03581000        12.01000000
  3085 lmp_003                 1 R01      Ac0d          0        -0.11109000        12.01000000
  3086 lmp_009                 1 R01      Ac0e          0         0.04331000         1.00800000
  3087 lmp_009                 1 R01      Ac0f          0         0.04331000         1.00800000
  3088 lmp_009                 1 R01      Ac10          0         0.04331000         1.00800000
  3089 lmp_005                 1 R01      Ac11          0        -0.08649000        12.01000000
  3090 lmp_005                 1 R01      Ac12          0        -0.09149000        12.01000000
  3091 lmp_005                 1 R01      Ac13          0         0.05181000        12.01000000
  3092 lmp_003                 1 R01      Ac14          0        -0.10009000        12.01000000
  3093 lmp_009                 1 R01      Ac15          0         0.04551000         1.00800000
  3094 lmp_009                 1 R01      Ac16          0         0.04551000         1.00800000
  3095 lmp_009                 1 R01      Ac17          0         0.04551000         1.00800000
  3096 lmp_007                 1 R01      Ac18          0         0.00531000        12.01000000
  3097 lmp_009                 1 R01      Ac19          0         0.03971000         1.00800000
  3098 lmp_004                 1 R01      Ac1a          0         0.05571000        12.01000000
  3099 lmp_009                 1 R01      Ac1b          0         0.01041000         1.00800000
  3100 lmp_004                 1 R01      Ac1c          0        -0.21059000        12.01000000
  3101 lmp_009                 1 R01      Ac1d          0         0.05311000         1.00800000
  3102 lmp_009                 1 R01      Ac1e          0         0.05311000         1.00800000
  3103 lmp_005                 1 R01      Ac1f          0        -0.04569000        12.01000000
  3104 lmp_005                 1 R01      Ac20          0        -0.20379000        12.01000000
  3105 lmp_008                 1 R01      Ac21          0         0.15591000         1.00800000
  3106 lmp_003                 1 R01      Ac22          0        -0.10048000        12.01000000
  3107 lmp_009                 1 R01      Ac23          0         0.02361000         1.00800000
  3108 lmp_009                 1 R01      Ac24          0         0.02361000         1.00800000
  3109 lmp_009                 1 R01      Ac25          0         0.02361000         1.00800000
  3110 lmp_004                 1 R01      Ac26          0         0.19001000        12.01000000
  3111 lmp_003                 1 R01      Ac27          0        -0.17889000        12.01000000
  3112 lmp_009                 1 R01      Ac28          0         0.04121000         1.00800000
  3113 lmp_009                 1 R01      Ac29          0         0.04121000         1.00800000
  3114 lmp_009                 1 R01      Ac2a          0         0.04121000         1.00800000
  3115 lmp_005                 1 R01      Ac2b          0         0.00401000        12.01000000
  3116 lmp_006                 1 R01      Ac2c          0         0.00111000        12.01000000
  3117 lmp_005                 1 R01      Ac2d          0        -0.18989000        12.01000000
  3118 lmp_008                 1 R01      Ac2e          0         0.14431000         1.00800000
  3119 lmp_005                 1 R01      Ac2f          0        -0.04879000        12.01000000
  3120 lmp_007                 1 R01      Ac30          0         0.03141000        12.01000000
  3121 lmp_009                 1 R01      Ac31          0         0.03521000         1.00800000
  3122 lmp_007                 1 R01      Ac32          0         0.01591000        12.01000000
  3123 lmp_009                 1 R01      Ac33          0         0.03721000         1.00800000
  3124 lmp_004                 1 R01      Ac34          0         0.02141000        12.01000000
  3125 lmp_009                 1 R01      Ac35          0         0.01911000         1.00800000
  3126 lmp_007                 1 R01      Ac36          0         0.02241000        12.01000000
  3127 lmp_009                 1 R01      Ac37          0         0.03781000         1.00800000
  3128 lmp_007                 1 R01      Ac38          0         0.01411000        12.01000000
  3129 lmp_009                 1 R01      Ac39          0         0.03861000         1.00800000
  3130 lmp_004                 1 R01      Ac3a          0         0.01111000        12.01000000
  3131 lmp_009                 1 R01      Ac3b          0         0.02341000         1.00800000
  3132 lmp_004                 1 R01      Ac3c          0        -0.10289000        12.01000000
  3133 lmp_009                 1 R01      Ac3d          0         0.04701000         1.00800000
  3134 lmp_009                 1 R01      Ac3e          0         0.04701000         1.00800000
  3135 lmp_005                 1 R01      Ac3f          0        -0.03099000        12.01000000
  3136 lmp_005                 1 R01      Ac40          0        -0.25069000        12.01000000
  3137 lmp_008                 1 R01      Ac41          0         0.17281000         1.00800000
  3138 lmp_006                 1 R01      Ac42          0         0.02131000        12.01000000
  3139 lmp_005                 1 R01      Ac43          0         0.02031000        12.01000000
  3140 lmp_005                 1 R01      Ac44          0        -0.24969000        12.01000000
  3141 lmp_008                 1 R01      Ac45          0         0.17861000         1.00800000
  3142 lmp_005                 1 R01      Ac46          0        -0.03239000        12.01000000
  3143 lmp_007                 1 R01      Ac47          0         0.03221000        12.01000000
  3144 lmp_009                 1 R01      Ac48          0         0.02561000         1.00800000
  3145 lmp_007                 1 R01      Ac49          0         0.02991000        12.01000000
  3146 lmp_009                 1 R01      Ac4a          0         0.02761000         1.00800000
  3147 lmp_004                 1 R01      Ac4b          0         0.05471000        12.01000000
  3148 lmp_009                 1 R01      Ac4c          0         0.00921000         1.00800000
  3149 lmp_007                 1 R01      Ac4d          0         0.00911000        12.01000000
  3150 lmp_009                 1 R01      Ac4e          0         0.03851000         1.00800000
  3151 lmp_005                 1 R01      Ac4f          0        -0.12349000        12.01000000
  3152 lmp_005                 1 R01      Ac50          0        -0.12549000        12.01000000
  3153 lmp_005                 1 R01      Ac51          0         0.03581000        12.01000000
  3154 lmp_003                 1 R01      Ac52          0        -0.11109000        12.01000000
  3155 lmp_009                 1 R01      Ac53          0         0.04331000         1.00800000
  3156 lmp_009                 1 R01      Ac54          0         0.04331000         1.00800000
  3157 lmp_009                 1 R01      Ac55          0         0.04331000         1.00800000
  3158 lmp_005                 1 R01      Ac56          0        -0.08649000        12.01000000
  3159 lmp_005                 1 R01      Ac57          0        -0.09149000        12.01000000
  3160 lmp_005                 1 R01      Ac58          0         0.05181000        12.01000000
  3161 lmp_003                 1 R01      Ac59          0        -0.10009000        12.01000000
  3162 lmp_009                 1 R01      Ac5a          0         0.04551000         1.00800000
  3163 lmp_009                 1 R01      Ac5b          0         0.04551000         1.00800000
  3164 lmp_009                 1 R01      Ac5c          0         0.04551000         1.00800000
  3165 lmp_007                 1 R01      Ac5d          0         0.00531000        12.01000000
  3166 lmp_009                 1 R01      Ac5e          0         0.03971000         1.00800000
  3167 lmp_004                 1 R01      Ac5f          0         0.05571000        12.01000000
  3168 lmp_009                 1 R01      Ac60          0         0.01041000         1.00800000
  3169 lmp_004                 1 R01      Ac61          0        -0.21059000        12.01000000
  3170 lmp_009                 1 R01      Ac62          0         0.05311000         1.00800000
  3171 lmp_009                 1 R01      Ac63          0         0.05311000         1.00800000
  3172 lmp_005                 1 R01      Ac64          0        -0.04569000        12.01000000
  3173 lmp_005                 1 R01      Ac65          0        -0.20379000        12.01000000
  3174 lmp_008                 1 R01      Ac66          0         0.15591000         1.00800000
  3175 lmp_003                 1 R01      Ac67          0        -0.10048000        12.01000000
  3176 lmp_009                 1 R01      Ac68          0         0.02361000         1.00800000
  3177 lmp_009                 1 R01      Ac69          0         0.02361000         1.00800000
  3178 lmp_009                 1 R01      Ac6a          0         0.02361000         1.00800000
  3179 lmp_004                 1 R01      Ac6b          0         0.19001000        12.01000000
  3180 lmp_003                 1 R01      Ac6c          0        -0.17889000        12.01000000
  3181 lmp_009                 1 R01      Ac6d          0         0.04121000         1.00800000
  3182 lmp_009                 1 R01      Ac6e          0         0.04121000         1.00800000
  3183 lmp_009                 1 R01      Ac6f          0         0.04121000         1.00800000
  3184 lmp_005                 1 R01      Ac70          0         0.00401000        12.01000000
  3185 lmp_006                 1 R01      Ac71          0         0.00111000        12.01000000
  3186 lmp_005                 1 R01      Ac72          0        -0.18989000        12.01000000
  3187 lmp_008                 1 R01      Ac73          0         0.14431000         1.00800000
  3188 lmp_005                 1 R01      Ac74          0        -0.04879000        12.01000000
  3189 lmp_007                 1 R01      Ac75          0         0.03141000        12.01000000
  3190 lmp_009                 1 R01      Ac76          0         0.03521000         1.00800000
  3191 lmp_007                 1 R01      Ac77          0         0.01591000        12.01000000
  3192 lmp_009                 1 R01      Ac78          0         0.03721000         1.00800000
  3193 lmp_004                 1 R01      Ac79          0         0.02141000        12.01000000
  3194 lmp_009                 1 R01      Ac7a          0         0.01911000         1.00800000
  3195 lmp_007                 1 R01      Ac7b          0         0.02241000        12.01000000
  3196 lmp_009                 1 R01      Ac7c          0         0.03781000         1.00800000
  3197 lmp_007                 1 R01      Ac7d          0         0.01411000        12.01000000
  3198 lmp_009                 1 R01      Ac7e          0         0.03861000         1.00800000
  3199 lmp_004                 1 R01      Ac7f          0         0.01111000        12.01000000
  3200 lmp_009                 1 R01      Ac80          0         0.02341000         1.00800000
  3201 lmp_004                 1 R01      Ac81          0        -0.10289000        12.01000000
  3202 lmp_009                 1 R01      Ac82          0         0.04701000         1.00800000
  3203 lmp_009                 1 R01      Ac83          0         0.04701000         1.00800000
  3204 lmp_005                 1 R01      Ac84          0        -0.03099000        12.01000000
  3205 lmp_005                 1 R01      Ac85          0        -0.25069000        12.01000000
  3206 lmp_008                 1 R01      Ac86          0         0.17281000         1.00800000
  3207 lmp_006                 1 R01      Ac87          0         0.02131000        12.01000000
  3208 lmp_005                 1 R01      Ac88          0         0.02031000        12.01000000
  3209 lmp_005                 1 R01      Ac89          0        -0.24969000        12.01000000
  3210 lmp_008                 1 R01      Ac8a          0         0.17861000         1.00800000
  3211 lmp_005                 1 R01      Ac8b          0        -0.03239000        12.01000000
  3212 lmp_007                 1 R01      Ac8c          0         0.03221000        12.01000000
  3213 lmp_009                 1 R01      Ac8d          0         0.02561000         1.00800000
  3214 lmp_007                 1 R01      Ac8e          0         0.02991000        12.01000000
  3215 lmp_009                 1 R01      Ac8f          0         0.02761000         1.00800000
  3216 lmp_004                 1 R01      Ac90          0         0.05471000        12.01000000
  3217 lmp_009                 1 R01      Ac91          0         0.00921000         1.00800000
  3218 lmp_007                 1 R01      Ac92          0         0.00911000        12.01000000
  3219 lmp_009                 1 R01      Ac93          0         0.03851000         1.00800000
  3220 lmp_005                 1 R01      Ac94          0        -0.12349000        12.01000000
  3221 lmp_005                 1 R01      Ac95          0        -0.12549000        12.01000000
  3222 lmp_005                 1 R01      Ac96          0         0.03581000        12.01000000
  3223 lmp_003                 1 R01      Ac97          0        -0.11109000        12.01000000
  3224 lmp_009                 1 R01      Ac98          0         0.04331000         1.00800000
  3225 lmp_009                 1 R01      Ac99          0         0.04331000         1.00800000
  3226 lmp_009                 1 R01      Ac9a          0         0.04331000         1.00800000
  3227 lmp_005                 1 R01      Ac9b          0        -0.08649000        12.01000000
  3228 lmp_005                 1 R01      Ac9c          0        -0.09149000        12.01000000
  3229 lmp_005                 1 R01      Ac9d          0         0.05181000        12.01000000
  3230 lmp_003                 1 R01      Ac9e          0        -0.10009000        12.01000000
  3231 lmp_009                 1 R01      Ac9f          0         0.04551000         1.00800000
  3232 lmp_009                 1 R01      Aca0          0         0.04551000         1.00800000
  3233 lmp_009                 1 R01      Aca1          0         0.04551000         1.00800000
  3234 lmp_007                 1 R01      Aca2          0         0.00531000        12.01000000
  3235 lmp_009                 1 R01      Aca3          0         0.03971000         1.00800000
  3236 lmp_004                 1 R01      Aca4          0         0.05571000        12.01000000
  3237 lmp_009                 1 R01      Aca5          0         0.01041000         1.00800000
  3238 lmp_004                 1 R01      Aca6          0        -0.21059000        12.01000000
  3239 lmp_009                 1 R01      Aca7          0         0.05311000         1.00800000
  3240 lmp_009                 1 R01      Aca8          0         0.05311000         1.00800000
  3241 lmp_005                 1 R01      Aca9          0        -0.04569000        12.01000000
  3242 lmp_005                 1 R01      Acaa          0        -0.20379000        12.01000000
  3243 lmp_008                 1 R01      Acab          0         0.15591000         1.00800000
  3244 lmp_003                 1 R01      Acac          0        -0.10048000        12.01000000
  3245 lmp_009                 1 R01      Acad          0         0.02361000         1.00800000
  3246 lmp_009                 1 R01      Acae          0         0.02361000         1.00800000
  3247 lmp_009                 1 R01      Acaf          0         0.02361000         1.00800000
  3248 lmp_004                 1 R01      Acb0          0         0.19001000        12.01000000
  3249 lmp_003                 1 R01      Acb1          0        -0.17889000        12.01000000
  3250 lmp_009                 1 R01      Acb2          0         0.04121000         1.00800000
  3251 lmp_009                 1 R01      Acb3          0         0.04121000         1.00800000
  3252 lmp_009                 1 R01      Acb4          0         0.04121000         1.00800000
  3253 lmp_005                 1 R01      Acb5          0         0.00401000        12.01000000
  3254 lmp_006                 1 R01      Acb6          0         0.00111000        12.01000000
  3255 lmp_005                 1 R01      Acb7          0        -0.18989000        12.01000000
  3256 lmp_008                 1 R01      Acb8          0         0.14431000         1.00800000
  3257 lmp_005                 1 R01      Acb9          0        -0.04879000        12.01000000
  3258 lmp_007                 1 R01      Acba          0         0.03141000        12.01000000
  3259 lmp_009                 1 R01      Acbb          0         0.03521000         1.00800000
  3260 lmp_007                 1 R01      Acbc          0         0.01591000        12.01000000
  3261 lmp_009                 1 R01      Acbd          0         0.03721000         1.00800000
  3262 lmp_004                 1 R01      Acbe          0         0.02141000        12.01000000
  3263 lmp_009                 1 R01      Acbf          0         0.01911000         1.00800000
  3264 lmp_007                 1 R01      Acc0          0         0.02241000        12.01000000
  3265 lmp_009                 1 R01      Acc1          0         0.03781000         1.00800000
  3266 lmp_007                 1 R01      Acc2          0         0.01411000        12.01000000
  3267 lmp_009                 1 R01      Acc3          0         0.03861000         1.00800000
  3268 lmp_004                 1 R01      Acc4          0         0.01111000        12.01000000
  3269 lmp_009                 1 R01      Acc5          0         0.02341000         1.00800000
  3270 lmp_004                 1 R01      Acc6          0        -0.10289000        12.01000000
  3271 lmp_009                 1 R01      Acc7          0         0.04701000         1.00800000
  3272 lmp_009                 1 R01      Acc8          0         0.04701000         1.00800000
  3273 lmp_005                 1 R01      Acc9          0        -0.03099000        12.01000000
  3274 lmp_005                 1 R01      Acca          0        -0.25069000        12.01000000
  3275 lmp_008                 1 R01      Accb          0         0.17281000         1.00800000
  3276 lmp_006                 1 R01      Accc          0         0.02131000        12.01000000
  3277 lmp_005                 1 R01      Accd          0         0.02031000        12.01000000
  3278 lmp_005                 1 R01      Acce          0        -0.24969000        12.01000000
  3279 lmp_008                 1 R01      Accf          0         0.17861000         1.00800000
  3280 lmp_005                 1 R01      Acd0          0        -0.03239000        12.01000000
  3281 lmp_007                 1 R01      Acd1          0         0.03221000        12.01000000
  3282 lmp_009                 1 R01      Acd2          0         0.02561000         1.00800000
  3283 lmp_007                 1 R01      Acd3          0         0.02991000        12.01000000
  3284 lmp_009                 1 R01      Acd4          0         0.02761000         1.00800000
  3285 lmp_004                 1 R01      Acd5          0         0.05471000        12.01000000
  3286 lmp_009                 1 R01      Acd6          0         0.00921000         1.00800000
  3287 lmp_007                 1 R01      Acd7          0         0.00911000        12.01000000
  3288 lmp_009                 1 R01      Acd8          0         0.03851000         1.00800000
  3289 lmp_005                 1 R01      Acd9          0        -0.12349000        12.01000000
  3290 lmp_005                 1 R01      Acda          0        -0.12549000        12.01000000
  3291 lmp_005                 1 R01      Acdb          0         0.03581000        12.01000000
  3292 lmp_003                 1 R01      Acdc          0        -0.11109000        12.01000000
  3293 lmp_009                 1 R01      Acdd          0         0.04331000         1.00800000
  3294 lmp_009                 1 R01      Acde          0         0.04331000         1.00800000
  3295 lmp_009                 1 R01      Acdf          0         0.04331000         1.00800000
  3296 lmp_005                 1 R01      Ace0          0        -0.08649000        12.01000000
  3297 lmp_005                 1 R01      Ace1          0        -0.09149000        12.01000000
  3298 lmp_005                 1 R01      Ace2          0         0.05181000        12.01000000
  3299 lmp_003                 1 R01      Ace3          0        -0.10009000        12.01000000
  3300 lmp_009                 1 R01      Ace4          0         0.04551000         1.00800000
  3301 lmp_009                 1 R01      Ace5          0         0.04551000         1.00800000
  3302 lmp_009                 1 R01      Ace6          0         0.04551000         1.00800000
  3303 lmp_007                 1 R01      Ace7          0         0.00531000        12.01000000
  3304 lmp_009                 1 R01      Ace8          0         0.03971000         1.00800000
  3305 lmp_004                 1 R01      Ace9          0         0.05571000        12.01000000
  3306 lmp_009                 1 R01      Acea          0         0.01041000         1.00800000
  3307 lmp_004                 1 R01      Aceb          0        -0.21059000        12.01000000
  3308 lmp_009                 1 R01      Acec          0         0.05311000         1.00800000
  3309 lmp_009                 1 R01      Aced          0         0.05311000         1.00800000
  3310 lmp_005                 1 R01      Acee          0        -0.04569000        12.01000000
  3311 lmp_005                 1 R01      Acef          0        -0.20379000        12.01000000
  3312 lmp_008                 1 R01      Acf0          0         0.15591000         1.00800000
  3313 lmp_003                 1 R01      Acf1          0        -0.10048000        12.01000000
  3314 lmp_009                 1 R01      Acf2          0         0.02361000         1.00800000
  3315 lmp_009                 1 R01      Acf3          0         0.02361000         1.00800000
  3316 lmp_009                 1 R01      Acf4          0         0.02361000         1.00800000
  3317 lmp_004                 1 R01      Acf5          0         0.19001000        12.01000000
  3318 lmp_003                 1 R01      Acf6          0        -0.17889000        12.01000000
  3319 lmp_009                 1 R01      Acf7          0         0.04121000         1.00800000
  3320 lmp_009                 1 R01      Acf8          0         0.04121000         1.00800000
  3321 lmp_009                 1 R01      Acf9          0         0.04121000         1.00800000
  3322 lmp_005                 1 R01      Acfa          0         0.00401000        12.01000000
  3323 lmp_006                 1 R01      Acfb          0         0.00111000        12.01000000
  3324 lmp_005                 1 R01      Acfc          0        -0.18989000        12.01000000
  3325 lmp_008                 1 R01      Acfd          0         0.14431000         1.00800000
  3326 lmp_005                 1 R01      Acfe          0        -0.04879000        12.01000000
  3327 lmp_007                 1 R01      Acff          0         0.03141000        12.01000000
  3328 lmp_009                 1 R01      Ad00          0         0.03521000         1.00800000
  3329 lmp_007                 1 R01      Ad01          0         0.01591000        12.01000000
  3330 lmp_009                 1 R01      Ad02          0         0.03721000         1.00800000
  3331 lmp_004                 1 R01      Ad03          0         0.02141000        12.01000000
  3332 lmp_009                 1 R01      Ad04          0         0.01911000         1.00800000
  3333 lmp_007                 1 R01      Ad05          0         0.02241000        12.01000000
  3334 lmp_009                 1 R01      Ad06          0         0.03781000         1.00800000
  3335 lmp_007                 1 R01      Ad07          0         0.01411000        12.01000000
  3336 lmp_009                 1 R01      Ad08          0         0.03861000         1.00800000
  3337 lmp_004                 1 R01      Ad09          0         0.01111000        12.01000000
  3338 lmp_009                 1 R01      Ad0a          0         0.02341000         1.00800000
  3339 lmp_004                 1 R01      Ad0b          0        -0.10289000        12.01000000
  3340 lmp_009                 1 R01      Ad0c          0         0.04701000         1.00800000
  3341 lmp_009                 1 R01      Ad0d          0         0.04701000         1.00800000
  3342 lmp_005                 1 R01      Ad0e          0        -0.03099000        12.01000000
  3343 lmp_005                 1 R01      Ad0f          0        -0.25069000        12.01000000
  3344 lmp_008                 1 R01      Ad10          0         0.17281000         1.00800000
  3345 lmp_006                 1 R01      Ad11          0         0.02131000        12.01000000
  3346 lmp_005                 1 R01      Ad12          0         0.02031000        12.01000000
  3347 lmp_005                 1 R01      Ad13          0        -0.24969000        12.01000000
  3348 lmp_008                 1 R01      Ad14          0         0.17861000         1.00800000
  3349 lmp_005                 1 R01      Ad15          0        -0.03239000        12.01000000
  3350 lmp_007                 1 R01      Ad16          0         0.03221000        12.01000000
  3351 lmp_009                 1 R01      Ad17          0         0.02561000         1.00800000
  3352 lmp_007                 1 R01      Ad18          0         0.02991000        12.01000000
  3353 lmp_009                 1 R01      Ad19          0         0.02761000         1.00800000
  3354 lmp_004                 1 R01      Ad1a          0         0.05471000        12.01000000
  3355 lmp_009                 1 R01      Ad1b          0         0.00921000         1.00800000
  3356 lmp_007                 1 R01      Ad1c          0         0.00911000        12.01000000
  3357 lmp_009                 1 R01      Ad1d          0         0.03851000         1.00800000
  3358 lmp_005                 1 R01      Ad1e          0        -0.12349000        12.01000000
  3359 lmp_005                 1 R01      Ad1f          0        -0.12549000        12.01000000
  3360 lmp_005                 1 R01      Ad20          0         0.03581000        12.01000000
  3361 lmp_003                 1 R01      Ad21          0        -0.11109000        12.01000000
  3362 lmp_009                 1 R01      Ad22          0         0.04331000         1.00800000
  3363 lmp_009                 1 R01      Ad23          0         0.04331000         1.00800000
  3364 lmp_009                 1 R01      Ad24          0         0.04331000         1.00800000
  3365 lmp_005                 1 R01      Ad25          0        -0.08649000        12.01000000
  3366 lmp_005                 1 R01      Ad26          0        -0.09149000        12.01000000
  3367 lmp_005                 1 R01      Ad27          0         0.05181000        12.01000000
  3368 lmp_003                 1 R01      Ad28          0        -0.10009000        12.01000000
  3369 lmp_009                 1 R01      Ad29          0         0.04551000         1.00800000
  3370 lmp_009                 1 R01      Ad2a          0         0.04551000         1.00800000
  3371 lmp_009                 1 R01      Ad2b          0         0.04551000         1.00800000
  3372 lmp_007                 1 R01      Ad2c          0         0.00531000        12.01000000
  3373 lmp_009                 1 R01      Ad2d          0         0.03971000         1.00800000
  3374 lmp_004                 1 R01      Ad2e          0         0.05571000        12.01000000
  3375 lmp_009                 1 R01      Ad2f          0         0.01041000         1.00800000
  3376 lmp_004                 1 R01      Ad30          0        -0.21059000        12.01000000
  3377 lmp_009                 1 R01      Ad31          0         0.05311000         1.00800000
  3378 lmp_009                 1 R01      Ad32          0         0.05311000         1.00800000
  3379 lmp_005                 1 R01      Ad33          0        -0.04569000        12.01000000
  3380 lmp_005                 1 R01      Ad34          0        -0.20379000        12.01000000
  3381 lmp_008                 1 R01      Ad35          0         0.15591000         1.00800000
  3382 lmp_003                 1 R01      Ad36          0        -0.10048000        12.01000000
  3383 lmp_009                 1 R01      Ad37          0         0.02361000         1.00800000
  3384 lmp_009                 1 R01      Ad38          0         0.02361000         1.00800000
  3385 lmp_009                 1 R01      Ad39          0         0.02361000         1.00800000
  3386 lmp_004                 1 R01      Ad3a          0         0.19001000        12.01000000
  3387 lmp_003                 1 R01      Ad3b          0        -0.17889000        12.01000000
  3388 lmp_009                 1 R01      Ad3c          0         0.04121000         1.00800000
  3389 lmp_009                 1 R01      Ad3d          0         0.04121000         1.00800000
  3390 lmp_009                 1 R01      Ad3e          0         0.04121000         1.00800000
  3391 lmp_005                 1 R01      Ad3f          0         0.00401000        12.01000000
  3392 lmp_006                 1 R01      Ad40          0         0.00111000        12.01000000
  3393 lmp_005                 1 R01      Ad41          0        -0.18989000        12.01000000
  3394 lmp_008                 1 R01      Ad42          0         0.14431000         1.00800000
  3395 lmp_005                 1 R01      Ad43          0        -0.04879000        12.01000000
  3396 lmp_007                 1 R01      Ad44          0         0.03141000        12.01000000
  3397 lmp_009                 1 R01      Ad45          0         0.03521000         1.00800000
  3398 lmp_007                 1 R01      Ad46          0         0.01591000        12.01000000
  3399 lmp_009                 1 R01      Ad47          0         0.03721000         1.00800000
  3400 lmp_004                 1 R01      Ad48          0         0.02141000        12.01000000
  3401 lmp_009                 1 R01      Ad49          0         0.01911000         1.00800000
  3402 lmp_007                 1 R01      Ad4a          0         0.02241000        12.01000000
  3403 lmp_009                 1 R01      Ad4b          0         0.03781000         1.00800000
  3404 lmp_007                 1 R01      Ad4c          0         0.01411000        12.01000000
  3405 lmp_009                 1 R01      Ad4d          0         0.03861000         1.00800000
  3406 lmp_004                 1 R01      Ad4e          0         0.01111000        12.01000000
  3407 lmp_009                 1 R01      Ad4f          0         0.02341000         1.00800000
  3408 lmp_004                 1 R01      Ad50          0        -0.10289000        12.01000000
  3409 lmp_009                 1 R01      Ad51          0         0.04701000         1.00800000
  3410 lmp_009                 1 R01      Ad52          0         0.04701000         1.00800000
  3411 lmp_005                 1 R01      Ad53          0        -0.03099000        12.01000000
  3412 lmp_005                 1 R01      Ad54          0        -0.25069000        12.01000000
  3413 lmp_008                 1 R01      Ad55          0         0.17281000         1.00800000
  3414 lmp_006                 1 R01      Ad56          0         0.02131000        12.01000000
  3415 lmp_005                 1 R01      Ad57          0         0.02031000        12.01000000
  3416 lmp_005                 1 R01      Ad58          0        -0.24969000        12.01000000
  3417 lmp_008                 1 R01      Ad59          0         0.17861000         1.00800000
  3418 lmp_005                 1 R01      Ad5a          0        -0.03239000        12.01000000
  3419 lmp_007                 1 R01      Ad5b          0         0.03221000        12.01000000
  3420 lmp_009                 1 R01      Ad5c          0         0.02561000         1.00800000
  3421 lmp_007                 1 R01      Ad5d          0         0.02991000        12.01000000
  3422 lmp_009                 1 R01      Ad5e          0         0.02761000         1.00800000
  3423 lmp_004                 1 R01      Ad5f          0         0.05471000        12.01000000
  3424 lmp_009                 1 R01      Ad60          0         0.00921000         1.00800000
  3425 lmp_007                 1 R01      Ad61          0         0.00911000        12.01000000
  3426 lmp_009                 1 R01      Ad62          0         0.03851000         1.00800000
  3427 lmp_005                 1 R01      Ad63          0        -0.12349000        12.01000000
  3428 lmp_005                 1 R01      Ad64          0        -0.12549000        12.01000000
  3429 lmp_005                 1 R01      Ad65          0         0.03581000        12.01000000
  3430 lmp_003                 1 R01      Ad66          0        -0.11109000        12.01000000
  3431 lmp_009                 1 R01      Ad67          0         0.04331000         1.00800000
  3432 lmp_009                 1 R01      Ad68          0         0.04331000         1.00800000
  3433 lmp_009                 1 R01      Ad69          0         0.04331000         1.00800000
  3434 lmp_005                 1 R01      Ad6a          0        -0.08649000        12.01000000
  3435 lmp_005                 1 R01      Ad6b          0        -0.09149000        12.01000000
  3436 lmp_005                 1 R01      Ad6c          0         0.05181000        12.01000000
  3437 lmp_003                 1 R01      Ad6d          0        -0.10009000        12.01000000
  3438 lmp_009                 1 R01      Ad6e          0         0.04551000         1.00800000
  3439 lmp_009                 1 R01      Ad6f          0         0.04551000         1.00800000
  3440 lmp_009                 1 R01      Ad70          0         0.04551000         1.00800000
  3441 lmp_007                 1 R01      Ad71          0         0.00531000        12.01000000
  3442 lmp_009                 1 R01      Ad72          0         0.03971000         1.00800000
  3443 lmp_004                 1 R01      Ad73          0         0.05571000        12.01000000
  3444 lmp_009                 1 R01      Ad74          0         0.01041000         1.00800000
  3445 lmp_004                 1 R01      Ad75          0        -0.21059000        12.01000000
  3446 lmp_009                 1 R01      Ad76          0         0.05311000         1.00800000
  3447 lmp_009                 1 R01      Ad77          0         0.05311000         1.00800000
  3448 lmp_005                 1 R01      Ad78          0        -0.04569000        12.01000000
  3449 lmp_005                 1 R01      Ad79          0        -0.20379000        12.01000000
  3450 lmp_008                 1 R01      Ad7a          0         0.15591000         1.00800000
  3451 lmp_003                 1 R01      Ad7b          0        -0.10048000        12.01000000
  3452 lmp_009                 1 R01      Ad7c          0         0.02361000         1.00800000
  3453 lmp_009                 1 R01      Ad7d          0         0.02361000         1.00800000
  3454 lmp_009                 1 R01      Ad7e          0         0.02361000         1.00800000
  3455 lmp_004                 1 R01      Ad7f          0         0.19001000        12.01000000
  3456 lmp_003                 1 R01      Ad80          0        -0.17889000        12.01000000
  3457 lmp_009                 1 R01      Ad81          0         0.04121000         1.00800000
  3458 lmp_009                 1 R01      Ad82          0         0.04121000         1.00800000
  3459 lmp_009                 1 R01      Ad83          0         0.04121000         1.00800000
  3460 lmp_005                 1 R01      Ad84          0         0.00401000        12.01000000
  3461 lmp_006                 1 R01      Ad85          0         0.00111000        12.01000000
  3462 lmp_005                 1 R01      Ad86          0        -0.18989000        12.01000000
  3463 lmp_008                 1 R01      Ad87          0         0.14431000         1.00800000
  3464 lmp_005                 1 R01      Ad88          0        -0.04879000        12.01000000
  3465 lmp_007                 1 R01      Ad89          0         0.03141000        12.01000000
  3466 lmp_009                 1 R01      Ad8a          0         0.03521000         1.00800000
  3467 lmp_007                 1 R01      Ad8b          0         0.01591000        12.01000000
  3468 lmp_009                 1 R01      Ad8c          0         0.03721000         1.00800000
  3469 lmp_004                 1 R01      Ad8d          0         0.02141000        12.01000000
  3470 lmp_009                 1 R01      Ad8e          0         0.01911000         1.00800000
  3471 lmp_007                 1 R01      Ad8f          0         0.02241000        12.01000000
  3472 lmp_009                 1 R01      Ad90          0         0.03781000         1.00800000
  3473 lmp_007                 1 R01      Ad91          0         0.01411000        12.01000000
  3474 lmp_009                 1 R01      Ad92          0         0.03861000         1.00800000
  3475 lmp_004                 1 R01      Ad93          0         0.01111000        12.01000000
  3476 lmp_009                 1 R01      Ad94          0         0.02341000         1.00800000
  3477 lmp_004                 1 R01      Ad95          0        -0.10289000        12.01000000
  3478 lmp_009                 1 R01      Ad96          0         0.04701000         1.00800000
  3479 lmp_009                 1 R01      Ad97          0         0.04701000         1.00800000
  3480 lmp_005                 1 R01      Ad98          0        -0.03099000        12.01000000
  3481 lmp_005                 1 R01      Ad99          0        -0.25069000        12.01000000
  3482 lmp_008                 1 R01      Ad9a          0         0.17281000         1.00800000
  3483 lmp_006                 1 R01      Ad9b          0         0.02131000        12.01000000
  3484 lmp_005                 1 R01      Ad9c          0         0.02031000        12.01000000
  3485 lmp_005                 1 R01      Ad9d          0        -0.24969000        12.01000000
  3486 lmp_008                 1 R01      Ad9e          0         0.17861000         1.00800000
  3487 lmp_005                 1 R01      Ad9f          0        -0.03239000        12.01000000
  3488 lmp_007                 1 R01      Ada0          0         0.03221000        12.01000000
  3489 lmp_009                 1 R01      Ada1          0         0.02561000         1.00800000
  3490 lmp_007                 1 R01      Ada2          0         0.02991000        12.01000000
  3491 lmp_009                 1 R01      Ada3          0         0.02761000         1.00800000
  3492 lmp_004                 1 R01      Ada4          0         0.05471000        12.01000000
  3493 lmp_009                 1 R01      Ada5          0         0.00921000         1.00800000
  3494 lmp_007                 1 R01      Ada6          0         0.00911000        12.01000000
  3495 lmp_009                 1 R01      Ada7          0         0.03851000         1.00800000
  3496 lmp_005                 1 R01      Ada8          0        -0.12349000        12.01000000
  3497 lmp_005                 1 R01      Ada9          0        -0.12549000        12.01000000
  3498 lmp_005                 1 R01      Adaa          0         0.03581000        12.01000000
  3499 lmp_003                 1 R01      Adab          0        -0.11109000        12.01000000
  3500 lmp_009                 1 R01      Adac          0         0.04331000         1.00800000
  3501 lmp_009                 1 R01      Adad          0         0.04331000         1.00800000
  3502 lmp_009                 1 R01      Adae          0         0.04331000         1.00800000
  3503 lmp_005                 1 R01      Adaf          0        -0.08649000        12.01000000
  3504 lmp_005                 1 R01      Adb0          0        -0.09149000        12.01000000
  3505 lmp_005                 1 R01      Adb1          0         0.05181000        12.01000000
  3506 lmp_003                 1 R01      Adb2          0        -0.10009000        12.01000000
  3507 lmp_009                 1 R01      Adb3          0         0.04551000         1.00800000
  3508 lmp_009                 1 R01      Adb4          0         0.04551000         1.00800000
  3509 lmp_009                 1 R01      Adb5          0         0.04551000         1.00800000
  3510 lmp_007                 1 R01      Adb6          0         0.00531000        12.01000000
  3511 lmp_009                 1 R01      Adb7          0         0.03971000         1.00800000
  3512 lmp_004                 1 R01      Adb8          0         0.05571000        12.01000000
  3513 lmp_009                 1 R01      Adb9          0         0.01041000         1.00800000
  3514 lmp_004                 1 R01      Adba          0        -0.21059000        12.01000000
  3515 lmp_009                 1 R01      Adbb          0         0.05311000         1.00800000
  3516 lmp_009                 1 R01      Adbc          0         0.05311000         1.00800000
  3517 lmp_005                 1 R01      Adbd          0        -0.04569000        12.01000000
  3518 lmp_005                 1 R01      Adbe          0        -0.20379000        12.01000000
  3519 lmp_008                 1 R01      Adbf          0         0.15591000         1.00800000
  3520 lmp_003                 1 R01      Adc0          0        -0.10048000        12.01000000
  3521 lmp_009                 1 R01      Adc1          0         0.02361000         1.00800000
  3522 lmp_009                 1 R01      Adc2          0         0.02361000         1.00800000
  3523 lmp_009                 1 R01      Adc3          0         0.02361000         1.00800000
  3524 lmp_004                 1 R01      Adc4          0         0.19001000        12.01000000
  3525 lmp_003                 1 R01      Adc5          0        -0.17889000        12.01000000
  3526 lmp_009                 1 R01      Adc6          0         0.04121000         1.00800000
  3527 lmp_009                 1 R01      Adc7          0         0.04121000         1.00800000
  3528 lmp_009                 1 R01      Adc8          0         0.04121000         1.00800000
  3529 lmp_005                 1 R01      Adc9          0         0.00401000        12.01000000
  3530 lmp_006                 1 R01      Adca          0         0.00111000        12.01000000
  3531 lmp_005                 1 R01      Adcb          0        -0.18989000        12.01000000
  3532 lmp_008                 1 R01      Adcc          0         0.14431000         1.00800000
  3533 lmp_005                 1 R01      Adcd          0        -0.04879000        12.01000000
  3534 lmp_007                 1 R01      Adce          0         0.03141000        12.01000000
  3535 lmp_009                 1 R01      Adcf          0         0.03521000         1.00800000
  3536 lmp_007                 1 R01      Add0          0         0.01591000        12.01000000
  3537 lmp_009                 1 R01      Add1          0         0.03721000         1.00800000
  3538 lmp_004                 1 R01      Add2          0         0.02141000        12.01000000
  3539 lmp_009                 1 R01      Add3          0         0.01911000         1.00800000
  3540 lmp_007                 1 R01      Add4          0         0.02241000        12.01000000
  3541 lmp_009                 1 R01      Add5          0         0.03781000         1.00800000
  3542 lmp_007                 1 R01      Add6          0         0.01411000        12.01000000
  3543 lmp_009                 1 R01      Add7          0         0.03861000         1.00800000
  3544 lmp_004                 1 R01      Add8          0         0.01111000        12.01000000
  3545 lmp_009                 1 R01      Add9          0         0.02341000         1.00800000
  3546 lmp_004                 1 R01      Adda          0        -0.10289000        12.01000000
  3547 lmp_009                 1 R01      Addb          0         0.04701000         1.00800000
  3548 lmp_009                 1 R01      Addc          0         0.04701000         1.00800000
  3549 lmp_005                 1 R01      Addd          0        -0.03099000        12.01000000
  3550 lmp_005                 1 R01      Adde          0        -0.25069000        12.01000000
  3551 lmp_008                 1 R01      Addf          0         0.17281000         1.00800000
  3552 lmp_006                 1 R01      Ade0          0         0.02131000        12.01000000
  3553 lmp_005                 1 R01      Ade1          0         0.02031000        12.01000000
  3554 lmp_005                 1 R01      Ade2          0        -0.24969000        12.01000000
  3555 lmp_008                 1 R01      Ade3          0         0.17861000         1.00800000
  3556 lmp_005                 1 R01      Ade4          0        -0.03239000        12.01000000
  3557 lmp_007                 1 R01      Ade5          0         0.03221000        12.01000000
  3558 lmp_009                 1 R01      Ade6          0         0.02561000         1.00800000
  3559 lmp_007                 1 R01      Ade7          0         0.02991000        12.01000000
  3560 lmp_009                 1 R01      Ade8          0         0.02761000         1.00800000
  3561 lmp_004                 1 R01      Ade9          0         0.05471000        12.01000000
  3562 lmp_009                 1 R01      Adea          0         0.00921000         1.00800000
  3563 lmp_007                 1 R01      Adeb          0         0.00911000        12.01000000
  3564 lmp_009                 1 R01      Adec          0         0.03851000         1.00800000
  3565 lmp_005                 1 R01      Aded          0        -0.12349000        12.01000000
  3566 lmp_005                 1 R01      Adee          0        -0.12549000        12.01000000
  3567 lmp_005                 1 R01      Adef          0         0.03581000        12.01000000
  3568 lmp_003                 1 R01      Adf0          0        -0.11109000        12.01000000
  3569 lmp_009                 1 R01      Adf1          0         0.04331000         1.00800000
  3570 lmp_009                 1 R01      Adf2          0         0.04331000         1.00800000
  3571 lmp_009                 1 R01      Adf3          0         0.04331000         1.00800000
  3572 lmp_005                 1 R01      Adf4          0        -0.08649000        12.01000000
  3573 lmp_005                 1 R01      Adf5          0        -0.09149000        12.01000000
  3574 lmp_005                 1 R01      Adf6          0         0.05181000        12.01000000
  3575 lmp_003                 1 R01      Adf7          0        -0.10009000        12.01000000
  3576 lmp_009                 1 R01      Adf8          0         0.04551000         1.00800000
  3577 lmp_009                 1 R01      Adf9          0         0.04551000         1.00800000
  3578 lmp_009                 1 R01      Adfa          0         0.04551000         1.00800000
  3579 lmp_007                 1 R01      Adfb          0         0.00531000        12.01000000
  3580 lmp_009                 1 R01      Adfc          0         0.03971000         1.00800000
  3581 lmp_004                 1 R01      Adfd          0         0.05571000        12.01000000
  3582 lmp_009                 1 R01      Adfe          0         0.01041000         1.00800000
  3583 lmp_004                 1 R01      Adff          0        -0.21059000        12.01000000
  3584 lmp_009                 1 R01      Ae00          0         0.05311000         1.00800000
  3585 lmp_009                 1 R01      Ae01          0         0.05311000         1.00800000
  3586 lmp_005                 1 R01      Ae02          0        -0.04569000        12.01000000
  3587 lmp_005                 1 R01      Ae03          0        -0.20379000        12.01000000
  3588 lmp_008                 1 R01      Ae04          0         0.15591000         1.00800000
  3589 lmp_003                 1 R01      Ae05          0        -0.10048000        12.01000000
  3590 lmp_009                 1 R01      Ae06          0         0.02361000         1.00800000
  3591 lmp_009                 1 R01      Ae07          0         0.02361000         1.00800000
  3592 lmp_009                 1 R01      Ae08          0         0.02361000         1.00800000
  3593 lmp_004                 1 R01      Ae09          0         0.19001000        12.01000000
  3594 lmp_003                 1 R01      Ae0a          0        -0.17889000        12.01000000
  3595 lmp_009                 1 R01      Ae0b          0         0.04121000         1.00800000
  3596 lmp_009                 1 R01      Ae0c          0         0.04121000         1.00800000
  3597 lmp_009                 1 R01      Ae0d          0         0.04121000         1.00800000
  3598 lmp_005                 1 R01      Ae0e          0         0.00401000        12.01000000
  3599 lmp_006                 1 R01      Ae0f          0         0.00111000        12.01000000
  3600 lmp_005                 1 R01      Ae10          0        -0.18989000        12.01000000
  3601 lmp_008                 1 R01      Ae11          0         0.14431000         1.00800000
  3602 lmp_005                 1 R01      Ae12          0        -0.04879000        12.01000000
  3603 lmp_007                 1 R01      Ae13          0         0.03141000        12.01000000
  3604 lmp_009                 1 R01      Ae14          0         0.03521000         1.00800000
  3605 lmp_007                 1 R01      Ae15          0         0.01591000        12.01000000
  3606 lmp_009                 1 R01      Ae16          0         0.03721000         1.00800000
  3607 lmp_004                 1 R01      Ae17          0         0.02141000        12.01000000
  3608 lmp_009                 1 R01      Ae18          0         0.01911000         1.00800000
  3609 lmp_007                 1 R01      Ae19          0         0.02241000        12.01000000
  3610 lmp_009                 1 R01      Ae1a          0         0.03781000         1.00800000
  3611 lmp_007                 1 R01      Ae1b          0         0.01411000        12.01000000
  3612 lmp_009                 1 R01      Ae1c          0         0.03861000         1.00800000
  3613 lmp_004                 1 R01      Ae1d          0         0.01111000        12.01000000
  3614 lmp_009                 1 R01      Ae1e          0         0.02341000         1.00800000
  3615 lmp_004                 1 R01      Ae1f          0        -0.10289000        12.01000000
  3616 lmp_009                 1 R01      Ae20          0         0.04701000         1.00800000
  3617 lmp_009                 1 R01      Ae21          0         0.04701000         1.00800000
  3618 lmp_005                 1 R01      Ae22          0        -0.03099000        12.01000000
  3619 lmp_005                 1 R01      Ae23          0        -0.25069000        12.01000000
  3620 lmp_008                 1 R01      Ae24          0         0.17281000         1.00800000
  3621 lmp_006                 1 R01      Ae25          0         0.02131000        12.01000000
  3622 lmp_005                 1 R01      Ae26          0         0.02031000        12.01000000
  3623 lmp_005                 1 R01      Ae27          0        -0.24969000        12.01000000
  3624 lmp_008                 1 R01      Ae28          0         0.17861000         1.00800000
  3625 lmp_005                 1 R01      Ae29          0        -0.03239000        12.01000000
  3626 lmp_007                 1 R01      Ae2a          0         0.03221000        12.01000000
  3627 lmp_009                 1 R01      Ae2b          0         0.02561000         1.00800000
  3628 lmp_007                 1 R01      Ae2c          0         0.02991000        12.01000000
  3629 lmp_009                 1 R01      Ae2d          0         0.02761000         1.00800000
  3630 lmp_004                 1 R01      Ae2e          0         0.05471000        12.01000000
  3631 lmp_009                 1 R01      Ae2f          0         0.00921000         1.00800000
  3632 lmp_007                 1 R01      Ae30          0         0.00911000        12.01000000
  3633 lmp_009                 1 R01      Ae31          0         0.03851000         1.00800000
  3634 lmp_005                 1 R01      Ae32          0        -0.12349000        12.01000000
  3635 lmp_005                 1 R01      Ae33          0        -0.12549000        12.01000000
  3636 lmp_005                 1 R01      Ae34          0         0.03581000        12.01000000
  3637 lmp_003                 1 R01      Ae35          0        -0.11109000        12.01000000
  3638 lmp_009                 1 R01      Ae36          0         0.04331000         1.00800000
  3639 lmp_009                 1 R01      Ae37          0         0.04331000         1.00800000
  3640 lmp_009                 1 R01      Ae38          0         0.04331000         1.00800000
  3641 lmp_005                 1 R01      Ae39          0        -0.08649000        12.01000000
  3642 lmp_005                 1 R01      Ae3a          0        -0.09149000        12.01000000
  3643 lmp_005                 1 R01      Ae3b          0         0.05181000        12.01000000
  3644 lmp_003                 1 R01      Ae3c          0        -0.10009000        12.01000000
  3645 lmp_009                 1 R01      Ae3d          0         0.04551000         1.00800000
  3646 lmp_009                 1 R01      Ae3e          0         0.04551000         1.00800000
  3647 lmp_009                 1 R01      Ae3f          0         0.04551000         1.00800000
  3648 lmp_007                 1 R01      Ae40          0         0.00531000        12.01000000
  3649 lmp_009                 1 R01      Ae41          0         0.03971000         1.00800000
  3650 lmp_004                 1 R01      Ae42          0         0.05571000        12.01000000
  3651 lmp_009                 1 R01      Ae43          0         0.01041000         1.00800000
  3652 lmp_004                 1 R01      Ae44          0        -0.21059000        12.01000000
  3653 lmp_009                 1 R01      Ae45          0         0.05311000         1.00800000
  3654 lmp_009                 1 R01      Ae46          0         0.05311000         1.00800000
  3655 lmp_005                 1 R01      Ae47          0        -0.04569000        12.01000000
  3656 lmp_005                 1 R01      Ae48          0        -0.20379000        12.01000000
  3657 lmp_008                 1 R01      Ae49          0         0.15591000         1.00800000
  3658 lmp_003                 1 R01      Ae4a          0        -0.10048000        12.01000000
  3659 lmp_009                 1 R01      Ae4b          0         0.02361000         1.00800000
  3660 lmp_009                 1 R01      Ae4c          0         0.02361000         1.00800000
  3661 lmp_009                 1 R01      Ae4d          0         0.02361000         1.00800000
  3662 lmp_004                 1 R01      Ae4e          0         0.19001000        12.01000000
  3663 lmp_003                 1 R01      Ae4f          0        -0.17889000        12.01000000
  3664 lmp_009                 1 R01      Ae50          0         0.04121000         1.00800000
  3665 lmp_009                 1 R01      Ae51          0         0.04121000         1.00800000
  3666 lmp_009                 1 R01      Ae52          0         0.04121000         1.00800000
  3667 lmp_005                 1 R01      Ae53          0         0.00401000        12.01000000
  3668 lmp_006                 1 R01      Ae54          0         0.00111000        12.01000000
  3669 lmp_005                 1 R01      Ae55          0        -0.18989000        12.01000000
  3670 lmp_008                 1 R01      Ae56          0         0.14431000         1.00800000
  3671 lmp_005                 1 R01      Ae57          0        -0.04879000        12.01000000
  3672 lmp_007                 1 R01      Ae58          0         0.03141000        12.01000000
  3673 lmp_009                 1 R01      Ae59          0         0.03521000         1.00800000
  3674 lmp_007                 1 R01      Ae5a          0         0.01591000        12.01000000
  3675 lmp_009                 1 R01      Ae5b          0         0.03721000         1.00800000
  3676 lmp_004                 1 R01      Ae5c          0         0.02141000        12.01000000
  3677 lmp_009                 1 R01      Ae5d          0         0.01911000         1.00800000
  3678 lmp_007                 1 R01      Ae5e          0         0.02241000        12.01000000
  3679 lmp_009                 1 R01      Ae5f          0         0.03781000         1.00800000
  3680 lmp_007                 1 R01      Ae60          0         0.01411000        12.01000000
  3681 lmp_009                 1 R01      Ae61          0         0.03861000         1.00800000
  3682 lmp_004                 1 R01      Ae62          0         0.01111000        12.01000000
  3683 lmp_009                 1 R01      Ae63          0         0.02341000         1.00800000
  3684 lmp_004                 1 R01      Ae64          0        -0.10289000        12.01000000
  3685 lmp_009                 1 R01      Ae65          0         0.04701000         1.00800000
  3686 lmp_009                 1 R01      Ae66          0         0.04701000         1.00800000
  3687 lmp_005                 1 R01      Ae67          0        -0.03099000        12.01000000
  3688 lmp_005                 1 R01      Ae68          0        -0.25069000        12.01000000
  3689 lmp_008                 1 R01      Ae69          0         0.17281000         1.00800000
  3690 lmp_006                 1 R01      Ae6a          0         0.02131000        12.01000000
  3691 lmp_005                 1 R01      Ae6b          0         0.02031000        12.01000000
  3692 lmp_005                 1 R01      Ae6c          0        -0.24969000        12.01000000
  3693 lmp_008                 1 R01      Ae6d          0         0.17861000         1.00800000
  3694 lmp_005                 1 R01      Ae6e          0        -0.03239000        12.01000000
  3695 lmp_007                 1 R01      Ae6f          0         0.03221000        12.01000000
  3696 lmp_009                 1 R01      Ae70          0         0.02561000         1.00800000
  3697 lmp_007                 1 R01      Ae71          0         0.02991000        12.01000000
  3698 lmp_009                 1 R01      Ae72          0         0.02761000         1.00800000
  3699 lmp_004                 1 R01      Ae73          0         0.05471000        12.01000000
  3700 lmp_009                 1 R01      Ae74          0         0.00921000         1.00800000
  3701 lmp_007                 1 R01      Ae75          0         0.00911000        12.01000000
  3702 lmp_009                 1 R01      Ae76          0         0.03851000         1.00800000
  3703 lmp_005                 1 R01      Ae77          0        -0.12349000        12.01000000
  3704 lmp_005                 1 R01      Ae78          0        -0.12549000        12.01000000
  3705 lmp_005                 1 R01      Ae79          0         0.03581000        12.01000000
  3706 lmp_003                 1 R01      Ae7a          0        -0.11109000        12.01000000
  3707 lmp_009                 1 R01      Ae7b          0         0.04331000         1.00800000
  3708 lmp_009                 1 R01      Ae7c          0         0.04331000         1.00800000
  3709 lmp_009                 1 R01      Ae7d          0         0.04331000         1.00800000
  3710 lmp_005                 1 R01      Ae7e          0        -0.08649000        12.01000000
  3711 lmp_005                 1 R01      Ae7f          0        -0.09149000        12.01000000
  3712 lmp_005                 1 R01      Ae80          0         0.05181000        12.01000000
  3713 lmp_003                 1 R01      Ae81          0        -0.10009000        12.01000000
  3714 lmp_009                 1 R01      Ae82          0         0.04551000         1.00800000
  3715 lmp_009                 1 R01      Ae83          0         0.04551000         1.00800000
  3716 lmp_009                 1 R01      Ae84          0         0.04551000         1.00800000
  3717 lmp_007                 1 R01      Ae85          0         0.00531000        12.01000000
  3718 lmp_009                 1 R01      Ae86          0         0.03971000         1.00800000
  3719 lmp_004                 1 R01      Ae87          0         0.05571000        12.01000000
  3720 lmp_009                 1 R01      Ae88          0         0.01041000         1.00800000
  3721 lmp_004                 1 R01      Ae89          0        -0.21059000        12.01000000
  3722 lmp_009                 1 R01      Ae8a          0         0.05311000         1.00800000
  3723 lmp_009                 1 R01      Ae8b          0         0.05311000         1.00800000
  3724 lmp_005                 1 R01      Ae8c          0        -0.04569000        12.01000000
  3725 lmp_005                 1 R01      Ae8d          0        -0.20379000        12.01000000
  3726 lmp_008                 1 R01      Ae8e          0         0.15591000         1.00800000
  3727 lmp_003                 1 R01      Ae8f          0        -0.10048000        12.01000000
  3728 lmp_009                 1 R01      Ae90          0         0.02361000         1.00800000
  3729 lmp_009                 1 R01      Ae91          0         0.02361000         1.00800000
  3730 lmp_009                 1 R01      Ae92          0         0.02361000         1.00800000
  3731 lmp_004                 1 R01      Ae93          0         0.19001000        12.01000000
  3732 lmp_003                 1 R01      Ae94          0        -0.17889000        12.01000000
  3733 lmp_009                 1 R01      Ae95          0         0.04121000         1.00800000
  3734 lmp_009                 1 R01      Ae96          0         0.04121000         1.00800000
  3735 lmp_009                 1 R01      Ae97          0         0.04121000         1.00800000
  3736 lmp_005                 1 R01      Ae98          0         0.00401000        12.01000000
  3737 lmp_006                 1 R01      Ae99          0         0.00111000        12.01000000
  3738 lmp_005                 1 R01      Ae9a          0        -0.18989000        12.01000000
  3739 lmp_008                 1 R01      Ae9b          0         0.14431000         1.00800000
  3740 lmp_005                 1 R01      Ae9c          0        -0.04879000        12.01000000
  3741 lmp_007                 1 R01      Ae9d          0         0.03141000        12.01000000
  3742 lmp_009                 1 R01      Ae9e          0         0.03521000         1.00800000
  3743 lmp_007                 1 R01      Ae9f          0         0.01591000        12.01000000
  3744 lmp_009                 1 R01      Aea0          0         0.03721000         1.00800000
  3745 lmp_004                 1 R01      Aea1          0         0.02141000        12.01000000
  3746 lmp_009                 1 R01      Aea2          0         0.01911000         1.00800000
  3747 lmp_007                 1 R01      Aea3          0         0.02241000        12.01000000
  3748 lmp_009                 1 R01      Aea4          0         0.03781000         1.00800000
  3749 lmp_007                 1 R01      Aea5          0         0.01411000        12.01000000
  3750 lmp_009                 1 R01      Aea6          0         0.03861000         1.00800000
  3751 lmp_004                 1 R01      Aea7          0         0.01111000        12.01000000
  3752 lmp_009                 1 R01      Aea8          0         0.02341000         1.00800000
  3753 lmp_004                 1 R01      Aea9          0        -0.10289000        12.01000000
  3754 lmp_009                 1 R01      Aeaa          0         0.04701000         1.00800000
  3755 lmp_009                 1 R01      Aeab          0         0.04701000         1.00800000
  3756 lmp_005                 1 R01      Aeac          0        -0.03099000        12.01000000
  3757 lmp_005                 1 R01      Aead          0        -0.25069000        12.01000000
  3758 lmp_008                 1 R01      Aeae          0         0.17281000         1.00800000
  3759 lmp_006                 1 R01      Aeaf          0         0.02131000        12.01000000
  3760 lmp_005                 1 R01      Aeb0          0         0.02031000        12.01000000
  3761 lmp_005                 1 R01      Aeb1          0        -0.24969000        12.01000000
  3762 lmp_008                 1 R01      Aeb2          0         0.17861000         1.00800000
  3763 lmp_005                 1 R01      Aeb3          0        -0.03239000        12.01000000
  3764 lmp_007                 1 R01      Aeb4          0         0.03221000        12.01000000
  3765 lmp_009                 1 R01      Aeb5          0         0.02561000         1.00800000
  3766 lmp_007                 1 R01      Aeb6          0         0.02991000        12.01000000
  3767 lmp_009                 1 R01      Aeb7          0         0.02761000         1.00800000
  3768 lmp_004                 1 R01      Aeb8          0         0.05471000        12.01000000
  3769 lmp_009                 1 R01      Aeb9          0         0.00921000         1.00800000
  3770 lmp_007                 1 R01      Aeba          0         0.00911000        12.01000000
  3771 lmp_009                 1 R01      Aebb          0         0.03851000         1.00800000
  3772 lmp_005                 1 R01      Aebc          0        -0.12349000        12.01000000
  3773 lmp_005                 1 R01      Aebd          0        -0.12549000        12.01000000
  3774 lmp_005                 1 R01      Aebe          0         0.03581000        12.01000000
  3775 lmp_003                 1 R01      Aebf          0        -0.11109000        12.01000000
  3776 lmp_009                 1 R01      Aec0          0         0.04331000         1.00800000
  3777 lmp_009                 1 R01      Aec1          0         0.04331000         1.00800000
  3778 lmp_009                 1 R01      Aec2          0         0.04331000         1.00800000
  3779 lmp_005                 1 R01      Aec3          0        -0.08649000        12.01000000
  3780 lmp_005                 1 R01      Aec4          0        -0.09149000        12.01000000
  3781 lmp_005                 1 R01      Aec5          0         0.05181000        12.01000000
  3782 lmp_003                 1 R01      Aec6          0        -0.10009000        12.01000000
  3783 lmp_009                 1 R01      Aec7          0         0.04551000         1.00800000
  3784 lmp_009                 1 R01      Aec8          0         0.04551000         1.00800000
  3785 lmp_009                 1 R01      Aec9          0         0.04551000         1.00800000
  3786 lmp_007                 1 R01      Aeca          0         0.00531000        12.01000000
  3787 lmp_009                 1 R01      Aecb          0         0.03971000         1.00800000
  3788 lmp_004                 1 R01      Aecc          0         0.05571000        12.01000000
  3789 lmp_009                 1 R01      Aecd          0         0.01041000         1.00800000
  3790 lmp_004                 1 R01      Aece          0        -0.21059000        12.01000000
  3791 lmp_009                 1 R01      Aecf          0         0.05311000         1.00800000
  3792 lmp_009                 1 R01      Aed0          0         0.05311000         1.00800000
  3793 lmp_005                 1 R01      Aed1          0        -0.04569000        12.01000000
  3794 lmp_005                 1 R01      Aed2          0        -0.20379000        12.01000000
  3795 lmp_008                 1 R01      Aed3          0         0.15591000         1.00800000
  3796 lmp_003                 1 R01      Aed4          0        -0.10048000        12.01000000
  3797 lmp_009                 1 R01      Aed5          0         0.02361000         1.00800000
  3798 lmp_009                 1 R01      Aed6          0         0.02361000         1.00800000
  3799 lmp_009                 1 R01      Aed7          0         0.02361000         1.00800000
  3800 lmp_004                 1 R01      Aed8          0         0.19001000        12.01000000
  3801 lmp_003                 1 R01      Aed9          0        -0.17889000        12.01000000
  3802 lmp_009                 1 R01      Aeda          0         0.04121000         1.00800000
  3803 lmp_009                 1 R01      Aedb          0         0.04121000         1.00800000
  3804 lmp_009                 1 R01      Aedc          0         0.04121000         1.00800000
  3805 lmp_005                 1 R01      Aedd          0         0.00401000        12.01000000
  3806 lmp_006                 1 R01      Aede          0         0.00111000        12.01000000
  3807 lmp_005                 1 R01      Aedf          0        -0.18989000        12.01000000
  3808 lmp_008                 1 R01      Aee0          0         0.14431000         1.00800000
  3809 lmp_005                 1 R01      Aee1          0        -0.04879000        12.01000000
  3810 lmp_007                 1 R01      Aee2          0         0.03141000        12.01000000
  3811 lmp_009                 1 R01      Aee3          0         0.03521000         1.00800000
  3812 lmp_007                 1 R01      Aee4          0         0.01591000        12.01000000
  3813 lmp_009                 1 R01      Aee5          0         0.03721000         1.00800000
  3814 lmp_004                 1 R01      Aee6          0         0.02141000        12.01000000
  3815 lmp_009                 1 R01      Aee7          0         0.01911000         1.00800000
  3816 lmp_007                 1 R01      Aee8          0         0.02241000        12.01000000
  3817 lmp_009                 1 R01      Aee9          0         0.03781000         1.00800000
  3818 lmp_007                 1 R01      Aeea          0         0.01411000        12.01000000
  3819 lmp_009                 1 R01      Aeeb          0         0.03861000         1.00800000
  3820 lmp_004                 1 R01      Aeec          0         0.01111000        12.01000000
  3821 lmp_009                 1 R01      Aeed          0         0.02341000         1.00800000
  3822 lmp_004                 1 R01      Aeee          0        -0.10289000        12.01000000
  3823 lmp_009                 1 R01      Aeef          0         0.04701000         1.00800000
  3824 lmp_009                 1 R01      Aef0          0         0.04701000         1.00800000
  3825 lmp_005                 1 R01      Aef1          0        -0.03099000        12.01000000
  3826 lmp_005                 1 R01      Aef2          0        -0.25069000        12.01000000
  3827 lmp_008                 1 R01      Aef3          0         0.17281000         1.00800000
  3828 lmp_006                 1 R01      Aef4          0         0.02131000        12.01000000
  3829 lmp_005                 1 R01      Aef5          0         0.02031000        12.01000000
  3830 lmp_005                 1 R01      Aef6          0        -0.24969000        12.01000000
  3831 lmp_008                 1 R01      Aef7          0         0.17861000         1.00800000
  3832 lmp_005                 1 R01      Aef8          0        -0.03239000        12.01000000
  3833 lmp_007                 1 R01      Aef9          0         0.03221000        12.01000000
  3834 lmp_009                 1 R01      Aefa          0         0.02561000         1.00800000
  3835 lmp_007                 1 R01      Aefb          0         0.02991000        12.01000000
  3836 lmp_009                 1 R01      Aefc          0         0.02761000         1.00800000
  3837 lmp_004                 1 R01      Aefd          0         0.05471000        12.01000000
  3838 lmp_009                 1 R01      Aefe          0         0.00921000         1.00800000
  3839 lmp_007                 1 R01      Aeff          0         0.00911000        12.01000000
  3840 lmp_009                 1 R01      Af00          0         0.03851000         1.00800000
  3841 lmp_005                 1 R01      Af01          0        -0.12349000        12.01000000
  3842 lmp_005                 1 R01      Af02          0        -0.12549000        12.01000000
  3843 lmp_005                 1 R01      Af03          0         0.03581000        12.01000000
  3844 lmp_003                 1 R01      Af04          0        -0.11109000        12.01000000
  3845 lmp_009                 1 R01      Af05          0         0.04331000         1.00800000
  3846 lmp_009                 1 R01      Af06          0         0.04331000         1.00800000
  3847 lmp_009                 1 R01      Af07          0         0.04331000         1.00800000
  3848 lmp_005                 1 R01      Af08          0        -0.08649000        12.01000000
  3849 lmp_005                 1 R01      Af09          0        -0.09149000        12.01000000
  3850 lmp_005                 1 R01      Af0a          0         0.05181000        12.01000000
  3851 lmp_003                 1 R01      Af0b          0        -0.10009000        12.01000000
  3852 lmp_009                 1 R01      Af0c          0         0.04551000         1.00800000
  3853 lmp_009                 1 R01      Af0d          0         0.04551000         1.00800000
  3854 lmp_009                 1 R01      Af0e          0         0.04551000         1.00800000
  3855 lmp_007                 1 R01      Af0f          0         0.00531000        12.01000000
  3856 lmp_009                 1 R01      Af10          0         0.03971000         1.00800000
  3857 lmp_004                 1 R01      Af11          0         0.05571000        12.01000000
  3858 lmp_009                 1 R01      Af12          0         0.01041000         1.00800000
  3859 lmp_004                 1 R01      Af13          0        -0.21059000        12.01000000
  3860 lmp_009                 1 R01      Af14          0         0.05311000         1.00800000
  3861 lmp_009                 1 R01      Af15          0         0.05311000         1.00800000
  3862 lmp_005                 1 R01      Af16          0        -0.04569000        12.01000000
  3863 lmp_005                 1 R01      Af17          0        -0.20379000        12.01000000
  3864 lmp_008                 1 R01      Af18          0         0.15591000         1.00800000
  3865 lmp_003                 1 R01      Af19          0        -0.10048000        12.01000000
  3866 lmp_009                 1 R01      Af1a          0         0.02361000         1.00800000
  3867 lmp_009                 1 R01      Af1b          0         0.02361000         1.00800000
  3868 lmp_009                 1 R01      Af1c          0         0.02361000         1.00800000
  3869 lmp_004                 1 R01      Af1d          0         0.19001000        12.01000000
  3870 lmp_003                 1 R01      Af1e          0        -0.17889000        12.01000000
  3871 lmp_009                 1 R01      Af1f          0         0.04121000         1.00800000
  3872 lmp_009                 1 R01      Af20          0         0.04121000         1.00800000
  3873 lmp_009                 1 R01      Af21          0         0.04121000         1.00800000
  3874 lmp_005                 1 R01      Af22          0         0.00401000        12.01000000
  3875 lmp_006                 1 R01      Af23          0         0.00111000        12.01000000
  3876 lmp_005                 1 R01      Af24          0        -0.18989000        12.01000000
  3877 lmp_008                 1 R01      Af25          0         0.14431000         1.00800000
  3878 lmp_005                 1 R01      Af26          0        -0.04879000        12.01000000
  3879 lmp_007                 1 R01      Af27          0         0.03141000        12.01000000
  3880 lmp_009                 1 R01      Af28          0         0.03521000         1.00800000
  3881 lmp_007                 1 R01      Af29          0         0.01591000        12.01000000
  3882 lmp_009                 1 R01      Af2a          0         0.03721000         1.00800000
  3883 lmp_004                 1 R01      Af2b          0         0.02141000        12.01000000
  3884 lmp_009                 1 R01      Af2c          0         0.01911000         1.00800000
  3885 lmp_007                 1 R01      Af2d          0         0.02241000        12.01000000
  3886 lmp_009                 1 R01      Af2e          0         0.03781000         1.00800000
  3887 lmp_007                 1 R01      Af2f          0         0.01411000        12.01000000
  3888 lmp_009                 1 R01      Af30          0         0.03861000         1.00800000
  3889 lmp_004                 1 R01      Af31          0         0.01111000        12.01000000
  3890 lmp_009                 1 R01      Af32          0         0.02341000         1.00800000
  3891 lmp_004                 1 R01      Af33          0        -0.10289000        12.01000000
  3892 lmp_009                 1 R01      Af34          0         0.04701000         1.00800000
  3893 lmp_009                 1 R01      Af35          0         0.04701000         1.00800000
  3894 lmp_005                 1 R01      Af36          0        -0.03099000        12.01000000
  3895 lmp_005                 1 R01      Af37          0        -0.25069000        12.01000000
  3896 lmp_008                 1 R01      Af38          0         0.17281000         1.00800000
  3897 lmp_006                 1 R01      Af39          0         0.02131000        12.01000000
  3898 lmp_005                 1 R01      Af3a          0         0.02031000        12.01000000
  3899 lmp_005                 1 R01      Af3b          0        -0.24969000        12.01000000
  3900 lmp_008                 1 R01      Af3c          0         0.17861000         1.00800000
  3901 lmp_005                 1 R01      Af3d          0        -0.03239000        12.01000000
  3902 lmp_007                 1 R01      Af3e          0         0.03221000        12.01000000
  3903 lmp_009                 1 R01      Af3f          0         0.02561000         1.00800000
  3904 lmp_007                 1 R01      Af40          0         0.02991000        12.01000000
  3905 lmp_009                 1 R01      Af41          0         0.02761000         1.00800000
  3906 lmp_004                 1 R01      Af42          0         0.05471000        12.01000000
  3907 lmp_009                 1 R01      Af43          0         0.00921000         1.00800000
  3908 lmp_007                 1 R01      Af44          0         0.00911000        12.01000000
  3909 lmp_009                 1 R01      Af45          0         0.03851000         1.00800000
  3910 lmp_005                 1 R01      Af46          0        -0.12349000        12.01000000
  3911 lmp_005                 1 R01      Af47          0        -0.12549000        12.01000000
  3912 lmp_005                 1 R01      Af48          0         0.03581000        12.01000000
  3913 lmp_003                 1 R01      Af49          0        -0.11109000        12.01000000
  3914 lmp_009                 1 R01      Af4a          0         0.04331000         1.00800000
  3915 lmp_009                 1 R01      Af4b          0         0.04331000         1.00800000
  3916 lmp_009                 1 R01      Af4c          0         0.04331000         1.00800000
  3917 lmp_005                 1 R01      Af4d          0        -0.08649000        12.01000000
  3918 lmp_005                 1 R01      Af4e          0        -0.09149000        12.01000000
  3919 lmp_005                 1 R01      Af4f          0         0.05181000        12.01000000
  3920 lmp_003                 1 R01      Af50          0        -0.10009000        12.01000000
  3921 lmp_009                 1 R01      Af51          0         0.04551000         1.00800000
  3922 lmp_009                 1 R01      Af52          0         0.04551000         1.00800000
  3923 lmp_009                 1 R01      Af53          0         0.04551000         1.00800000
  3924 lmp_007                 1 R01      Af54          0         0.00531000        12.01000000
  3925 lmp_009                 1 R01      Af55          0         0.03971000         1.00800000
  3926 lmp_004                 1 R01      Af56          0         0.05571000        12.01000000
  3927 lmp_009                 1 R01      Af57          0         0.01041000         1.00800000
  3928 lmp_004                 1 R01      Af58          0        -0.21059000        12.01000000
  3929 lmp_009                 1 R01      Af59          0         0.05311000         1.00800000
  3930 lmp_009                 1 R01      Af5a          0         0.05311000         1.00800000
  3931 lmp_005                 1 R01      Af5b          0        -0.04569000        12.01000000
  3932 lmp_005                 1 R01      Af5c          0        -0.20379000        12.01000000
  3933 lmp_008                 1 R01      Af5d          0         0.15591000         1.00800000
  3934 lmp_003                 1 R01      Af5e          0        -0.10048000        12.01000000
  3935 lmp_009                 1 R01      Af5f          0         0.02361000         1.00800000
  3936 lmp_009                 1 R01      Af60          0         0.02361000         1.00800000
  3937 lmp_009                 1 R01      Af61          0         0.02361000         1.00800000
  3938 lmp_004                 1 R01      Af62          0         0.19001000        12.01000000
  3939 lmp_003                 1 R01      Af63          0        -0.17889000        12.01000000
  3940 lmp_009                 1 R01      Af64          0         0.04121000         1.00800000
  3941 lmp_009                 1 R01      Af65          0         0.04121000         1.00800000
  3942 lmp_009                 1 R01      Af66          0         0.04121000         1.00800000
  3943 lmp_005                 1 R01      Af67          0         0.00401000        12.01000000
  3944 lmp_006                 1 R01      Af68          0         0.00111000        12.01000000
  3945 lmp_005                 1 R01      Af69          0        -0.18989000        12.01000000
  3946 lmp_008                 1 R01      Af6a          0         0.14431000         1.00800000
  3947 lmp_005                 1 R01      Af6b          0        -0.04879000        12.01000000
  3948 lmp_007                 1 R01      Af6c          0         0.03141000        12.01000000
  3949 lmp_009                 1 R01      Af6d          0         0.03521000         1.00800000
  3950 lmp_007                 1 R01      Af6e          0         0.01591000        12.01000000
  3951 lmp_009                 1 R01      Af6f          0         0.03721000         1.00800000
  3952 lmp_004                 1 R01      Af70          0         0.02141000        12.01000000
  3953 lmp_009                 1 R01      Af71          0         0.01911000         1.00800000
  3954 lmp_007                 1 R01      Af72          0         0.02241000        12.01000000
  3955 lmp_009                 1 R01      Af73          0         0.03781000         1.00800000
  3956 lmp_007                 1 R01      Af74          0         0.01411000        12.01000000
  3957 lmp_009                 1 R01      Af75          0         0.03861000         1.00800000
  3958 lmp_004                 1 R01      Af76          0         0.01111000        12.01000000
  3959 lmp_009                 1 R01      Af77          0         0.02341000         1.00800000
  3960 lmp_004                 1 R01      Af78          0        -0.10289000        12.01000000
  3961 lmp_009                 1 R01      Af79          0         0.04701000         1.00800000
  3962 lmp_009                 1 R01      Af7a          0         0.04701000         1.00800000
  3963 lmp_005                 1 R01      Af7b          0        -0.03099000        12.01000000
  3964 lmp_005                 1 R01      Af7c          0        -0.25069000        12.01000000
  3965 lmp_008                 1 R01      Af7d          0         0.17281000         1.00800000
  3966 lmp_006                 1 R01      Af7e          0         0.02131000        12.01000000
  3967 lmp_005                 1 R01      Af7f          0         0.02031000        12.01000000
  3968 lmp_005                 1 R01      Af80          0        -0.24969000        12.01000000
  3969 lmp_008                 1 R01      Af81          0         0.17861000         1.00800000
  3970 lmp_005                 1 R01      Af82          0        -0.03239000        12.01000000
  3971 lmp_007                 1 R01      Af83          0         0.03221000        12.01000000
  3972 lmp_009                 1 R01      Af84          0         0.02561000         1.00800000
  3973 lmp_007                 1 R01      Af85          0         0.02991000        12.01000000
  3974 lmp_009                 1 R01      Af86          0         0.02761000         1.00800000
  3975 lmp_004                 1 R01      Af87          0         0.05471000        12.01000000
  3976 lmp_009                 1 R01      Af88          0         0.00921000         1.00800000
  3977 lmp_007                 1 R01      Af89          0         0.00911000        12.01000000
  3978 lmp_009                 1 R01      Af8a          0         0.03851000         1.00800000
  3979 lmp_005                 1 R01      Af8b          0        -0.12349000        12.01000000
  3980 lmp_005                 1 R01      Af8c          0        -0.12549000        12.01000000
  3981 lmp_005                 1 R01      Af8d          0         0.03581000        12.01000000
  3982 lmp_003                 1 R01      Af8e          0        -0.11109000        12.01000000
  3983 lmp_009                 1 R01      Af8f          0         0.04331000         1.00800000
  3984 lmp_009                 1 R01      Af90          0         0.04331000         1.00800000
  3985 lmp_009                 1 R01      Af91          0         0.04331000         1.00800000
  3986 lmp_005                 1 R01      Af92          0        -0.08649000        12.01000000
  3987 lmp_005                 1 R01      Af93          0        -0.09149000        12.01000000
  3988 lmp_005                 1 R01      Af94          0         0.05181000        12.01000000
  3989 lmp_003                 1 R01      Af95          0        -0.10009000        12.01000000
  3990 lmp_009                 1 R01      Af96          0         0.04551000         1.00800000
  3991 lmp_009                 1 R01      Af97          0         0.04551000         1.00800000
  3992 lmp_009                 1 R01      Af98          0         0.04551000         1.00800000
  3993 lmp_007                 1 R01      Af99          0         0.00531000        12.01000000
  3994 lmp_009                 1 R01      Af9a          0         0.03971000         1.00800000
  3995 lmp_004                 1 R01      Af9b          0         0.05571000        12.01000000
  3996 lmp_009                 1 R01      Af9c          0         0.01041000         1.00800000
  3997 lmp_004                 1 R01      Af9d          0        -0.21059000        12.01000000
  3998 lmp_009                 1 R01      Af9e          0         0.05311000         1.00800000
  3999 lmp_009                 1 R01      Af9f          0         0.05311000         1.00800000
  4000 lmp_005                 1 R01      Afa0          0        -0.04569000        12.01000000
  4001 lmp_005                 1 R01      Afa1          0        -0.20379000        12.01000000
  4002 lmp_008                 1 R01      Afa2          0         0.15591000         1.00800000
  4003 lmp_003                 1 R01      Afa3          0        -0.10048000        12.01000000
  4004 lmp_009                 1 R01      Afa4          0         0.02361000         1.00800000
  4005 lmp_009                 1 R01      Afa5          0         0.02361000         1.00800000
  4006 lmp_009                 1 R01      Afa6          0         0.02361000         1.00800000
  4007 lmp_004                 1 R01      Afa7          0         0.19001000        12.01000000
  4008 lmp_003                 1 R01      Afa8          0        -0.17889000        12.01000000
  4009 lmp_009                 1 R01      Afa9          0         0.04121000         1.00800000
  4010 lmp_009                 1 R01      Afaa          0         0.04121000         1.00800000
  4011 lmp_009                 1 R01      Afab          0         0.04121000         1.00800000
  4012 lmp_005                 1 R01      Afac          0         0.00401000        12.01000000
  4013 lmp_006                 1 R01      Afad          0         0.00111000        12.01000000
  4014 lmp_005                 1 R01      Afae          0        -0.18989000        12.01000000
  4015 lmp_008                 1 R01      Afaf          0         0.14431000         1.00800000
  4016 lmp_005                 1 R01      Afb0          0        -0.04879000        12.01000000
  4017 lmp_007                 1 R01      Afb1          0         0.03141000        12.01000000
  4018 lmp_009                 1 R01      Afb2          0         0.03521000         1.00800000
  4019 lmp_007                 1 R01      Afb3          0         0.01591000        12.01000000
  4020 lmp_009                 1 R01      Afb4          0         0.03721000         1.00800000
  4021 lmp_004                 1 R01      Afb5          0         0.02141000        12.01000000
  4022 lmp_009                 1 R01      Afb6          0         0.01911000         1.00800000
  4023 lmp_007                 1 R01      Afb7          0         0.02241000        12.01000000
  4024 lmp_009                 1 R01      Afb8          0         0.03781000         1.00800000
  4025 lmp_007                 1 R01      Afb9          0         0.01411000        12.01000000
  4026 lmp_009                 1 R01      Afba          0         0.03861000         1.00800000
  4027 lmp_004                 1 R01      Afbb          0         0.01111000        12.01000000
  4028 lmp_009                 1 R01      Afbc          0         0.02341000         1.00800000
  4029 lmp_004                 1 R01      Afbd          0        -0.10289000        12.01000000
  4030 lmp_009                 1 R01      Afbe          0         0.04701000         1.00800000
  4031 lmp_009                 1 R01      Afbf          0         0.04701000         1.00800000
  4032 lmp_005                 1 R01      Afc0          0        -0.03099000        12.01000000
  4033 lmp_005                 1 R01      Afc1          0        -0.25069000        12.01000000
  4034 lmp_008                 1 R01      Afc2          0         0.17281000         1.00800000
  4035 lmp_006                 1 R01      Afc3          0         0.02131000        12.01000000
  4036 lmp_005                 1 R01      Afc4          0         0.02031000        12.01000000
  4037 lmp_005                 1 R01      Afc5          0        -0.24969000        12.01000000
  4038 lmp_008                 1 R01      Afc6          0         0.17861000         1.00800000
  4039 lmp_005                 1 R01      Afc7          0        -0.03239000        12.01000000
  4040 lmp_007                 1 R01      Afc8          0         0.03221000        12.01000000
  4041 lmp_009                 1 R01      Afc9          0         0.02561000         1.00800000
  4042 lmp_007                 1 R01      Afca          0         0.02991000        12.01000000
  4043 lmp_009                 1 R01      Afcb          0         0.02761000         1.00800000
  4044 lmp_004                 1 R01      Afcc          0         0.05471000        12.01000000
  4045 lmp_009                 1 R01      Afcd          0         0.00921000         1.00800000
  4046 lmp_007                 1 R01      Afce          0         0.00911000        12.01000000
  4047 lmp_009                 1 R01      Afcf          0         0.03851000         1.00800000
  4048 lmp_005                 1 R01      Afd0          0        -0.12349000        12.01000000
  4049 lmp_005                 1 R01      Afd1          0        -0.12549000        12.01000000
  4050 lmp_005                 1 R01      Afd2          0         0.03581000        12.01000000
  4051 lmp_003                 1 R01      Afd3          0        -0.11109000        12.01000000
  4052 lmp_009                 1 R01      Afd4          0         0.04331000         1.00800000
  4053 lmp_009                 1 R01      Afd5          0         0.04331000         1.00800000
  4054 lmp_009                 1 R01      Afd6          0         0.04331000         1.00800000
  4055 lmp_005                 1 R01      Afd7          0        -0.08649000        12.01000000
  4056 lmp_005                 1 R01      Afd8          0        -0.09149000        12.01000000
  4057 lmp_005                 1 R01      Afd9          0         0.05181000        12.01000000
  4058 lmp_003                 1 R01      Afda          0        -0.10009000        12.01000000
  4059 lmp_009                 1 R01      Afdb          0         0.04551000         1.00800000
  4060 lmp_009                 1 R01      Afdc          0         0.04551000         1.00800000
  4061 lmp_009                 1 R01      Afdd          0         0.04551000         1.00800000
  4062 lmp_007                 1 R01      Afde          0         0.00531000        12.01000000
  4063 lmp_009                 1 R01      Afdf          0         0.03971000         1.00800000
  4064 lmp_004                 1 R01      Afe0          0         0.05571000        12.01000000
  4065 lmp_009                 1 R01      Afe1          0         0.01041000         1.00800000
  4066 lmp_004                 1 R01      Afe2          0        -0.21059000        12.01000000
  4067 lmp_009                 1 R01      Afe3          0         0.05311000         1.00800000
  4068 lmp_009                 1 R01      Afe4          0         0.05311000         1.00800000
  4069 lmp_005                 1 R01      Afe5          0        -0.04569000        12.01000000
  4070 lmp_005                 1 R01      Afe6          0        -0.20379000        12.01000000
  4071 lmp_008                 1 R01      Afe7          0         0.15591000         1.00800000
  4072 lmp_003                 1 R01      Afe8          0        -0.10048000        12.01000000
  4073 lmp_009                 1 R01      Afe9          0         0.02361000         1.00800000
  4074 lmp_009                 1 R01      Afea          0         0.02361000         1.00800000
  4075 lmp_009                 1 R01      Afeb          0         0.02361000         1.00800000
  4076 lmp_004                 1 R01      Afec          0         0.19001000        12.01000000
  4077 lmp_003                 1 R01      Afed          0        -0.17889000        12.01000000
  4078 lmp_009                 1 R01      Afee          0         0.04121000         1.00800000
  4079 lmp_009                 1 R01      Afef          0         0.04121000         1.00800000
  4080 lmp_009                 1 R01      Aff0          0         0.04121000         1.00800000
  4081 lmp_005                 1 R01      Aff1          0         0.00401000        12.01000000
  4082 lmp_006                 1 R01      Aff2          0         0.00111000        12.01000000
  4083 lmp_005                 1 R01      Aff3          0        -0.18989000        12.01000000
  4084 lmp_008                 1 R01      Aff4          0         0.14431000         1.00800000
  4085 lmp_005                 1 R01      Aff5          0        -0.04879000        12.01000000
  4086 lmp_007                 1 R01      Aff6          0         0.03141000        12.01000000
  4087 lmp_009                 1 R01      Aff7          0         0.03521000         1.00800000
  4088 lmp_007                 1 R01      Aff8          0         0.01591000        12.01000000
  4089 lmp_009                 1 R01      Aff9          0         0.03721000         1.00800000
  4090 lmp_004                 1 R01      Affa          0         0.02141000        12.01000000
  4091 lmp_009                 1 R01      Affb          0         0.01911000         1.00800000
  4092 lmp_007                 1 R01      Affc          0         0.02241000        12.01000000
  4093 lmp_009                 1 R01      Affd          0         0.03781000         1.00800000
  4094 lmp_007                 1 R01      Affe          0         0.01411000        12.01000000
  4095 lmp_009                 1 R01      Afff          0         0.03861000         1.00800000
  4096 lmp_004                 1 R01      A1000         0         0.01111000        12.01000000
  4097 lmp_009                 1 R01      A1001         0         0.02341000         1.00800000
  4098 lmp_004                 1 R01      A1002         0        -0.10289000        12.01000000
  4099 lmp_009                 1 R01      A1003         0         0.04701000         1.00800000
  4100 lmp_009                 1 R01      A1004         0         0.04701000         1.00800000
  4101 lmp_005                 1 R01      A1005         0        -0.03099000        12.01000000
  4102 lmp_005                 1 R01      A1006         0        -0.25069000        12.01000000
  4103 lmp_008                 1 R01      A1007         0         0.17281000         1.00800000
  4104 lmp_006                 1 R01      A1008         0         0.02131000        12.01000000
  4105 lmp_005                 1 R01      A1009         0         0.02031000        12.01000000
  4106 lmp_005                 1 R01      A100a         0        -0.24969000        12.01000000
  4107 lmp_008                 1 R01      A100b         0         0.17861000         1.00800000
  4108 lmp_005                 1 R01      A100c         0        -0.03239000        12.01000000
  4109 lmp_007                 1 R01      A100d         0         0.03221000        12.01000000
  4110 lmp_009                 1 R01      A100e         0         0.02561000         1.00800000
  4111 lmp_007                 1 R01      A100f         0         0.02991000        12.01000000
  4112 lmp_009                 1 R01      A1010         0         0.02761000         1.00800000
  4113 lmp_004                 1 R01      A1011         0         0.05471000        12.01000000
  4114 lmp_009                 1 R01      A1012         0         0.00921000         1.00800000
  4115 lmp_007                 1 R01      A1013         0         0.00911000        12.01000000
  4116 lmp_009                 1 R01      A1014         0         0.03851000         1.00800000
  4117 lmp_005                 1 R01      A1015         0        -0.12349000        12.01000000
  4118 lmp_005                 1 R01      A1016         0        -0.12549000        12.01000000
  4119 lmp_005                 1 R01      A1017         0         0.03581000        12.01000000
  4120 lmp_003                 1 R01      A1018         0        -0.11109000        12.01000000
  4121 lmp_009                 1 R01      A1019         0         0.04331000         1.00800000
  4122 lmp_009                 1 R01      A101a         0         0.04331000         1.00800000
  4123 lmp_009                 1 R01      A101b         0         0.04331000         1.00800000
  4124 lmp_005                 1 R01      A101c         0        -0.08649000        12.01000000
  4125 lmp_005                 1 R01      A101d         0        -0.09149000        12.01000000
  4126 lmp_005                 1 R01      A101e         0         0.05181000        12.01000000
  4127 lmp_003                 1 R01      A101f         0        -0.10009000        12.01000000
  4128 lmp_009                 1 R01      A1020         0         0.04551000         1.00800000
  4129 lmp_009                 1 R01      A1021         0         0.04551000         1.00800000
  4130 lmp_009                 1 R01      A1022         0         0.04551000         1.00800000
  4131 lmp_007                 1 R01      A1023         0         0.00531000        12.01000000
  4132 lmp_009                 1 R01      A1024         0         0.03971000         1.00800000
  4133 lmp_004                 1 R01      A1025         0         0.05571000        12.01000000
  4134 lmp_009                 1 R01      A1026         0         0.01041000         1.00800000
  4135 lmp_004                 1 R01      A1027         0        -0.21059000        12.01000000
  4136 lmp_009                 1 R01      A1028         0         0.05311000         1.00800000
  4137 lmp_009                 1 R01      A1029         0         0.05311000         1.00800000
  4138 lmp_005                 1 R01      A102a         0        -0.04569000        12.01000000
  4139 lmp_005                 1 R01      A102b         0        -0.20379000        12.01000000
  4140 lmp_008                 1 R01      A102c         0         0.15591000         1.00800000
  4141 lmp_003                 1 R01      A102d         0        -0.10048000        12.01000000
  4142 lmp_009                 1 R01      A102e         0         0.02361000         1.00800000
  4143 lmp_009                 1 R01      A102f         0         0.02361000         1.00800000
  4144 lmp_009                 1 R01      A1030         0         0.02361000         1.00800000
  4145 lmp_004                 1 R01      A1031         0         0.19001000        12.01000000
  4146 lmp_003                 1 R01      A1032         0        -0.17889000        12.01000000
  4147 lmp_009                 1 R01      A1033         0         0.04121000         1.00800000
  4148 lmp_009                 1 R01      A1034         0         0.04121000         1.00800000
  4149 lmp_009                 1 R01      A1035         0         0.04121000         1.00800000
  4150 lmp_005                 1 R01      A1036         0         0.00401000        12.01000000
  4151 lmp_006                 1 R01      A1037         0         0.00111000        12.01000000
  4152 lmp_005                 1 R01      A1038         0        -0.18989000        12.01000000
  4153 lmp_008                 1 R01      A1039         0         0.14431000         1.00800000
  4154 lmp_005                 1 R01      A103a         0        -0.04879000        12.01000000
  4155 lmp_007                 1 R01      A103b         0         0.03141000        12.01000000
  4156 lmp_009                 1 R01      A103c         0         0.03521000         1.00800000
  4157 lmp_007                 1 R01      A103d         0         0.01591000        12.01000000
  4158 lmp_009                 1 R01      A103e         0         0.03721000         1.00800000
  4159 lmp_004                 1 R01      A103f         0         0.02141000        12.01000000
  4160 lmp_009                 1 R01      A1040         0         0.01911000         1.00800000
  4161 lmp_007                 1 R01      A1041         0         0.02241000        12.01000000
  4162 lmp_009                 1 R01      A1042         0         0.03781000         1.00800000
  4163 lmp_007                 1 R01      A1043         0         0.01411000        12.01000000
  4164 lmp_009                 1 R01      A1044         0         0.03861000         1.00800000
  4165 lmp_004                 1 R01      A1045         0         0.01111000        12.01000000
  4166 lmp_009                 1 R01      A1046         0         0.02341000         1.00800000
  4167 lmp_004                 1 R01      A1047         0        -0.10289000        12.01000000
  4168 lmp_009                 1 R01      A1048         0         0.04701000         1.00800000
  4169 lmp_009                 1 R01      A1049         0         0.04701000         1.00800000
  4170 lmp_005                 1 R01      A104a         0        -0.03099000        12.01000000
  4171 lmp_005                 1 R01      A104b         0        -0.25069000        12.01000000
  4172 lmp_008                 1 R01      A104c         0         0.17281000         1.00800000
  4173 lmp_006                 1 R01      A104d         0         0.02131000        12.01000000
  4174 lmp_005                 1 R01      A104e         0         0.02031000        12.01000000
  4175 lmp_005                 1 R01      A104f         0        -0.24969000        12.01000000
  4176 lmp_008                 1 R01      A1050         0         0.17861000         1.00800000
  4177 lmp_005                 1 R01      A1051         0        -0.03239000        12.01000000
  4178 lmp_007                 1 R01      A1052         0         0.03221000        12.01000000
  4179 lmp_009                 1 R01      A1053         0         0.02561000         1.00800000
  4180 lmp_007                 1 R01      A1054         0         0.02991000        12.01000000
  4181 lmp_009                 1 R01      A1055         0         0.02761000         1.00800000
  4182 lmp_004                 1 R01      A1056         0         0.05471000        12.01000000
  4183 lmp_009                 1 R01      A1057         0         0.00921000         1.00800000
  4184 lmp_007                 1 R01      A1058         0         0.00911000        12.01000000
  4185 lmp_009                 1 R01      A1059         0         0.03851000         1.00800000
  4186 lmp_005                 1 R01      A105a         0        -0.12349000        12.01000000
  4187 lmp_005                 1 R01      A105b         0        -0.12549000        12.01000000
  4188 lmp_005                 1 R01      A105c         0         0.03581000        12.01000000
  4189 lmp_003                 1 R01      A105d         0        -0.11109000        12.01000000
  4190 lmp_009                 1 R01      A105e         0         0.04331000         1.00800000
  4191 lmp_009                 1 R01      A105f         0         0.04331000         1.00800000
  4192 lmp_009                 1 R01      A1060         0         0.04331000         1.00800000
  4193 lmp_005                 1 R01      A1061         0        -0.08649000        12.01000000
  4194 lmp_005                 1 R01      A1062         0        -0.09149000        12.01000000
  4195 lmp_005                 1 R01      A1063         0         0.05181000        12.01000000
  4196 lmp_003                 1 R01      A1064         0        -0.10009000        12.01000000
  4197 lmp_009                 1 R01      A1065         0         0.04551000         1.00800000
  4198 lmp_009                 1 R01      A1066         0         0.04551000         1.00800000
  4199 lmp_009                 1 R01      A1067         0         0.04551000         1.00800000
  4200 lmp_007                 1 R01      A1068         0         0.00531000        12.01000000
  4201 lmp_009                 1 R01      A1069         0         0.03971000         1.00800000
  4202 lmp_004                 1 R01      A106a         0         0.05571000        12.01000000
  4203 lmp_009                 1 R01      A106b         0         0.01041000         1.00800000
  4204 lmp_004                 1 R01      A106c         0        -0.21059000        12.01000000
  4205 lmp_009                 1 R01      A106d         0         0.05311000         1.00800000
  4206 lmp_009                 1 R01      A106e         0         0.05311000         1.00800000
  4207 lmp_005                 1 R01      A106f         0        -0.04569000        12.01000000
  4208 lmp_005                 1 R01      A1070         0        -0.20379000        12.01000000
  4209 lmp_008                 1 R01      A1071         0         0.15591000         1.00800000
  4210 lmp_003                 1 R01      A1072         0        -0.10048000        12.01000000
  4211 lmp_009                 1 R01      A1073         0         0.02361000         1.00800000
  4212 lmp_009                 1 R01      A1074         0         0.02361000         1.00800000
  4213 lmp_009                 1 R01      A1075         0         0.02361000         1.00800000
  4214 lmp_004                 1 R01      A1076         0         0.19001000        12.01000000
  4215 lmp_003                 1 R01      A1077         0        -0.17889000        12.01000000
  4216 lmp_009                 1 R01      A1078         0         0.04121000         1.00800000
  4217 lmp_009                 1 R01      A1079         0         0.04121000         1.00800000
  4218 lmp_009                 1 R01      A107a         0         0.04121000         1.00800000
  4219 lmp_005                 1 R01      A107b         0         0.00401000        12.01000000
  4220 lmp_006                 1 R01      A107c         0         0.00111000        12.01000000
  4221 lmp_005                 1 R01      A107d         0        -0.18989000        12.01000000
  4222 lmp_008                 1 R01      A107e         0         0.14431000         1.00800000
  4223 lmp_005                 1 R01      A107f         0        -0.04879000        12.01000000
  4224 lmp_007                 1 R01      A1080         0         0.03141000        12.01000000
  4225 lmp_009                 1 R01      A1081         0         0.03521000         1.00800000
  4226 lmp_007                 1 R01      A1082         0         0.01591000        12.01000000
  4227 lmp_009                 1 R01      A1083         0         0.03721000         1.00800000
  4228 lmp_004                 1 R01      A1084         0         0.02141000        12.01000000
  4229 lmp_009                 1 R01      A1085         0         0.01911000         1.00800000
  4230 lmp_001                 1 R01      A1086         0         0.02241000        12.01000000
  4231 lmp_009                 1 R01      A1087         0         0.03781000         1.00800000
  4232 lmp_001                 1 R01      A1088         0         0.01411000        12.01000000
  4233 lmp_009                 1 R01      A1089         0         0.03861000         1.00800000
  4234 lmp_004                 1 R01      A108a         0         0.01111000        12.01000000
  4235 lmp_009                 1 R01      A108b         0         0.02341000         1.00800000
  4236 lmp_004                 1 R01      A108c         0        -0.10289000        12.01000000
  4237 lmp_009                 1 R01      A108d         0         0.04701000         1.00800000
  4238 lmp_009                 1 R01      A108e         0         0.04701000         1.00800000
  4239 lmp_005                 1 R01      A108f         0        -0.03099000        12.01000000
  4240 lmp_005                 1 R01      A1090         0        -0.25069000        12.01000000
  4241 lmp_008                 1 R01      A1091         0         0.17281000         1.00800000
  4242 lmp_006                 1 R01      A1092         0         0.02131000        12.01000000
  4243 lmp_005                 1 R01      A1093         0         0.02031000        12.01000000
  4244 lmp_005                 1 R01      A1094         0        -0.24969000        12.01000000
  4245 lmp_008                 1 R01      A1095         0         0.17861000         1.00800000
  4246 lmp_005                 1 R01      A1096         0        -0.03239000        12.01000000
  4247 lmp_007                 1 R01      A1097         0         0.03221000        12.01000000
  4248 lmp_009                 1 R01      A1098         0         0.02561000         1.00800000
  4249 lmp_007                 1 R01      A1099         0         0.02991000        12.01000000
  4250 lmp_009                 1 R01      A109a         0         0.02761000         1.00800000
  4251 lmp_004                 1 R01      A109b         0         0.05471000        12.01000000
  4252 lmp_009                 1 R01      A109c         0         0.00921000         1.00800000
  4253 lmp_007                 1 R01      A109d         0         0.00911000        12.01000000
  4254 lmp_009                 1 R01      A109e         0         0.03851000         1.00800000
  4255 lmp_005                 1 R01      A109f         0        -0.12349000        12.01000000
  4256 lmp_005                 1 R01      A10a0         0        -0.12549000        12.01000000
  4257 lmp_005                 1 R01      A10a1         0         0.03581000        12.01000000
  4258 lmp_003                 1 R01      A10a2         0        -0.11109000        12.01000000
  4259 lmp_009                 1 R01      A10a3         0         0.04331000         1.00800000
  4260 lmp_009                 1 R01      A10a4         0         0.04331000         1.00800000
  4261 lmp_009                 1 R01      A10a5         0         0.04331000         1.00800000
  4262 lmp_005                 1 R01      A10a6         0        -0.08649000        12.01000000
  4263 lmp_005                 1 R01      A10a7         0        -0.09149000        12.01000000
  4264 lmp_005                 1 R01      A10a8         0         0.05181000        12.01000000
  4265 lmp_003                 1 R01      A10a9         0        -0.10009000        12.01000000
  4266 lmp_009                 1 R01      A10aa         0         0.04551000         1.00800000
  4267 lmp_009                 1 R01      A10ab         0         0.04551000         1.00800000
  4268 lmp_009                 1 R01      A10ac         0         0.04551000         1.00800000
  4269 lmp_007                 1 R01      A10ad         0         0.00531000        12.01000000
  4270 lmp_009                 1 R01      A10ae         0         0.03971000         1.00800000
  4271 lmp_004                 1 R01      A10af         0         0.05571000        12.01000000
  4272 lmp_009                 1 R01      A10b0         0         0.01041000         1.00800000
  4273 lmp_004                 1 R01      A10b1         0        -0.21059000        12.01000000
  4274 lmp_009                 1 R01      A10b2         0         0.05311000         1.00800000
  4275 lmp_009                 1 R01      A10b3         0         0.05311000         1.00800000
  4276 lmp_005                 1 R01      A10b4         0        -0.04569000        12.01000000
  4277 lmp_005                 1 R01      A10b5         0        -0.20379000        12.01000000
  4278 lmp_008                 1 R01      A10b6         0         0.15591000         1.00800000
  4279 lmp_003                 1 R01      A10b7         0        -0.10048000        12.01000000
  4280 lmp_009                 1 R01      A10b8         0         0.02361000         1.00800000
  4281 lmp_009                 1 R01      A10b9         0         0.02361000         1.00800000
  4282 lmp_009                 1 R01      A10ba         0         0.02361000         1.00800000
  4283 lmp_004                 1 R01      A10bb         0         0.19001000        12.01000000
  4284 lmp_003                 1 R01      A10bc         0        -0.17889000        12.01000000
  4285 lmp_009                 1 R01      A10bd         0         0.04121000         1.00800000
  4286 lmp_009                 1 R01      A10be         0         0.04121000         1.00800000
  4287 lmp_009                 1 R01      A10bf         0         0.04121000         1.00800000
  4288 lmp_005                 1 R01      A10c0         0         0.00401000        12.01000000
  4289 lmp_006                 1 R01      A10c1         0         0.00111000        12.01000000
  4290 lmp_005                 1 R01      A10c2         0        -0.18989000        12.01000000
  4291 lmp_008                 1 R01      A10c3         0         0.14431000         1.00800000
  4292 lmp_005                 1 R01      A10c4         0        -0.04879000        12.01000000
  4293 lmp_007                 1 R01      A10c5         0         0.03141000        12.01000000
  4294 lmp_009                 1 R01      A10c6         0         0.03521000         1.00800000
  4295 lmp_007                 1 R01      A10c7         0         0.01591000        12.01000000
  4296 lmp_009                 1 R01      A10c8         0         0.03721000         1.00800000
  4297 lmp_004                 1 R01      A10c9         0         0.02141000        12.01000000
  4298 lmp_009                 1 R01      A10ca         0         0.01911000         1.00800000
  4299 lmp_007                 1 R01      A10cb         0         0.02241000        12.01000000
  4300 lmp_009                 1 R01      A10cc         0         0.03781000         1.00800000
  4301 lmp_007                 1 R01      A10cd         0         0.01411000        12.01000000
  4302 lmp_009                 1 R01      A10ce         0         0.03861000         1.00800000
  4303 lmp_004                 1 R01      A10cf         0         0.01111000        12.01000000
  4304 lmp_009                 1 R01      A10d0         0         0.02341000         1.00800000
  4305 lmp_004                 1 R01      A10d1         0        -0.10289000        12.01000000
  4306 lmp_009                 1 R01      A10d2         0         0.04701000         1.00800000
  4307 lmp_009                 1 R01      A10d3         0         0.04701000         1.00800000
  4308 lmp_005                 1 R01      A10d4         0        -0.03099000        12.01000000
  4309 lmp_005                 1 R01      A10d5         0        -0.25069000        12.01000000
  4310 lmp_008                 1 R01      A10d6         0         0.17281000         1.00800000
  4311 lmp_006                 1 R01      A10d7         0         0.02131000        12.01000000
  4312 lmp_005                 1 R01      A10d8         0         0.02031000        12.01000000
  4313 lmp_005                 1 R01      A10d9         0        -0.24969000        12.01000000
  4314 lmp_008                 1 R01      A10da         0         0.17861000         1.00800000
  4315 lmp_005                 1 R01      A10db         0        -0.03239000        12.01000000
  4316 lmp_007                 1 R01      A10dc         0         0.03221000        12.01000000
  4317 lmp_009                 1 R01      A10dd         0         0.02561000         1.00800000
  4318 lmp_007                 1 R01      A10de         0         0.02991000        12.01000000
  4319 lmp_009                 1 R01      A10df         0         0.02761000         1.00800000
  4320 lmp_004                 1 R01      A10e0         0         0.05471000        12.01000000
  4321 lmp_009                 1 R01      A10e1         0         0.00921000         1.00800000
  4322 lmp_007                 1 R01      A10e2         0         0.00911000        12.01000000
  4323 lmp_009                 1 R01      A10e3         0         0.03851000         1.00800000
  4324 lmp_005                 1 R01      A10e4         0        -0.12349000        12.01000000
  4325 lmp_005                 1 R01      A10e5         0        -0.12549000        12.01000000
  4326 lmp_005                 1 R01      A10e6         0         0.03581000        12.01000000
  4327 lmp_003                 1 R01      A10e7         0        -0.11109000        12.01000000
  4328 lmp_009                 1 R01      A10e8         0         0.04331000         1.00800000
  4329 lmp_009                 1 R01      A10e9         0         0.04331000         1.00800000
  4330 lmp_009                 1 R01      A10ea         0         0.04331000         1.00800000
  4331 lmp_005                 1 R01      A10eb         0        -0.08649000        12.01000000
  4332 lmp_005                 1 R01      A10ec         0        -0.09149000        12.01000000
  4333 lmp_005                 1 R01      A10ed         0         0.05181000        12.01000000
  4334 lmp_003                 1 R01      A10ee         0        -0.10009000        12.01000000
  4335 lmp_009                 1 R01      A10ef         0         0.04551000         1.00800000
  4336 lmp_009                 1 R01      A10f0         0         0.04551000         1.00800000
  4337 lmp_009                 1 R01      A10f1         0         0.04551000         1.00800000
  4338 lmp_007                 1 R01      A10f2         0         0.00531000        12.01000000
  4339 lmp_009                 1 R01      A10f3         0         0.03971000         1.00800000
  4340 lmp_004                 1 R01      A10f4         0         0.05571000        12.01000000
  4341 lmp_009                 1 R01      A10f5         0         0.01041000         1.00800000
  4342 lmp_004                 1 R01      A10f6         0        -0.21059000        12.01000000
  4343 lmp_009                 1 R01      A10f7         0         0.05311000         1.00800000
  4344 lmp_009                 1 R01      A10f8         0         0.05311000         1.00800000
  4345 lmp_005                 1 R01      A10f9         0        -0.04569000        12.01000000
  4346 lmp_005                 1 R01      A10fa         0        -0.20379000        12.01000000
  4347 lmp_008                 1 R01      A10fb         0         0.15591000         1.00800000
  4348 lmp_003                 1 R01      A10fc         0        -0.10048000        12.01000000
  4349 lmp_009                 1 R01      A10fd         0         0.02361000         1.00800000
  4350 lmp_009                 1 R01      A10fe         0         0.02361000         1.00800000
  4351 lmp_009                 1 R01      A10ff         0         0.02361000         1.00800000
  4352 lmp_004                 1 R01      A1100         0         0.19001000        12.01000000
  4353 lmp_003                 1 R01      A1101         0        -0.17889000        12.01000000
  4354 lmp_009                 1 R01      A1102         0         0.04121000         1.00800000
  4355 lmp_009                 1 R01      A1103         0         0.04121000         1.00800000
  4356 lmp_009                 1 R01      A1104         0         0.04121000         1.00800000
  4357 lmp_005                 1 R01      A1105         0         0.00401000        12.01000000
  4358 lmp_006                 1 R01      A1106         0         0.00111000        12.01000000
  4359 lmp_005                 1 R01      A1107         0        -0.18989000        12.01000000
  4360 lmp_008                 1 R01      A1108         0         0.14431000         1.00800000
  4361 lmp_005                 1 R01      A1109         0        -0.04879000        12.01000000
  4362 lmp_007                 1 R01      A110a         0         0.03141000        12.01000000
  4363 lmp_009                 1 R01      A110b         0         0.03521000         1.00800000
  4364 lmp_007                 1 R01      A110c         0         0.01591000        12.01000000
  4365 lmp_009                 1 R01      A110d         0         0.03721000         1.00800000
  4366 lmp_004                 1 R01      A110e         0         0.02141000        12.01000000
  4367 lmp_009                 1 R01      A110f         0         0.01911000         1.00800000
  4368 lmp_007                 1 R01      A1110         0         0.02241000        12.01000000
  4369 lmp_009                 1 R01      A1111         0         0.03781000         1.00800000
  4370 lmp_007                 1 R01      A1112         0         0.01411000        12.01000000
  4371 lmp_009                 1 R01      A1113         0         0.03861000         1.00800000
  4372 lmp_004                 1 R01      A1114         0         0.01111000        12.01000000
  4373 lmp_009                 1 R01      A1115         0         0.02341000         1.00800000
  4374 lmp_004                 1 R01      A1116         0        -0.10289000        12.01000000
  4375 lmp_009                 1 R01      A1117         0         0.04701000         1.00800000
  4376 lmp_009                 1 R01      A1118         0         0.04701000         1.00800000
  4377 lmp_005                 1 R01      A1119         0        -0.03099000        12.01000000
  4378 lmp_005                 1 R01      A111a         0        -0.25069000        12.01000000
  4379 lmp_008                 1 R01      A111b         0         0.17281000         1.00800000
  4380 lmp_006                 1 R01      A111c         0         0.02131000        12.01000000
  4381 lmp_005                 1 R01      A111d         0         0.02031000        12.01000000
  4382 lmp_005                 1 R01      A111e         0        -0.24969000        12.01000000
  4383 lmp_008                 1 R01      A111f         0         0.17861000         1.00800000
  4384 lmp_005                 1 R01      A1120         0        -0.03239000        12.01000000
  4385 lmp_007                 1 R01      A1121         0         0.03221000        12.01000000
  4386 lmp_009                 1 R01      A1122         0         0.02561000         1.00800000
  4387 lmp_007                 1 R01      A1123         0         0.02991000        12.01000000
  4388 lmp_009                 1 R01      A1124         0         0.02761000         1.00800000
  4389 lmp_004                 1 R01      A1125         0         0.05471000        12.01000000
  4390 lmp_009                 1 R01      A1126         0         0.00921000         1.00800000
  4391 lmp_007                 1 R01      A1127         0         0.00911000        12.01000000
  4392 lmp_009                 1 R01      A1128         0         0.03851000         1.00800000
  4393 lmp_005                 1 R01      A1129         0        -0.12349000        12.01000000
  4394 lmp_005                 1 R01      A112a         0        -0.12549000        12.01000000
  4395 lmp_005                 1 R01      A112b         0         0.03581000        12.01000000
  4396 lmp_003                 1 R01      A112c         0        -0.11109000        12.01000000
  4397 lmp_009                 1 R01      A112d         0         0.04331000         1.00800000
  4398 lmp_009                 1 R01      A112e         0         0.04331000         1.00800000
  4399 lmp_009                 1 R01      A112f         0         0.04331000         1.00800000
  4400 lmp_005                 1 R01      A1130         0        -0.08649000        12.01000000
  4401 lmp_005                 1 R01      A1131         0        -0.09149000        12.01000000
  4402 lmp_005                 1 R01      A1132         0         0.05181000        12.01000000
  4403 lmp_003                 1 R01      A1133         0        -0.10009000        12.01000000
  4404 lmp_009                 1 R01      A1134         0         0.04551000         1.00800000
  4405 lmp_009                 1 R01      A1135         0         0.04551000         1.00800000
  4406 lmp_009                 1 R01      A1136         0         0.04551000         1.00800000
  4407 lmp_007                 1 R01      A1137         0         0.00531000        12.01000000
  4408 lmp_009                 1 R01      A1138         0         0.03971000         1.00800000
  4409 lmp_004                 1 R01      A1139         0         0.05571000        12.01000000
  4410 lmp_009                 1 R01      A113a         0         0.01041000         1.00800000
  4411 lmp_004                 1 R01      A113b         0        -0.21059000        12.01000000
  4412 lmp_009                 1 R01      A113c         0         0.05311000         1.00800000
  4413 lmp_009                 1 R01      A113d         0         0.05311000         1.00800000
  4414 lmp_005                 1 R01      A113e         0        -0.04569000        12.01000000
  4415 lmp_005                 1 R01      A113f         0        -0.20379000        12.01000000
  4416 lmp_008                 1 R01      A1140         0         0.15591000         1.00800000
  4417 lmp_003                 1 R01      A1141         0        -0.10048000        12.01000000
  4418 lmp_009                 1 R01      A1142         0         0.02361000         1.00800000
  4419 lmp_009                 1 R01      A1143         0         0.02361000         1.00800000
  4420 lmp_009                 1 R01      A1144         0         0.02361000         1.00800000
  4421 lmp_004                 1 R01      A1145         0         0.19001000        12.01000000
  4422 lmp_003                 1 R01      A1146         0        -0.17889000        12.01000000
  4423 lmp_009                 1 R01      A1147         0         0.04121000         1.00800000
  4424 lmp_009                 1 R01      A1148         0         0.04121000         1.00800000
  4425 lmp_009                 1 R01      A1149         0         0.04121000         1.00800000
  4426 lmp_005                 1 R01      A114a         0         0.00401000        12.01000000
  4427 lmp_006                 1 R01      A114b         0         0.00111000        12.01000000
  4428 lmp_005                 1 R01      A114c         0        -0.18989000        12.01000000
  4429 lmp_008                 1 R01      A114d         0         0.14431000         1.00800000
  4430 lmp_005                 1 R01      A114e         0        -0.04879000        12.01000000
  4431 lmp_007                 1 R01      A114f         0         0.03141000        12.01000000
  4432 lmp_009                 1 R01      A1150         0         0.03521000         1.00800000
  4433 lmp_007                 1 R01      A1151         0         0.01591000        12.01000000
  4434 lmp_009                 1 R01      A1152         0         0.03721000         1.00800000
  4435 lmp_004                 1 R01      A1153         0         0.02141000        12.01000000
  4436 lmp_009                 1 R01      A1154         0         0.01911000         1.00800000
  4437 lmp_007                 1 R01      A1155         0         0.02241000        12.01000000
  4438 lmp_009                 1 R01      A1156         0         0.03781000         1.00800000
  4439 lmp_007                 1 R01      A1157         0         0.01411000        12.01000000
  4440 lmp_009                 1 R01      A1158         0         0.03861000         1.00800000
  4441 lmp_004                 1 R01      A1159         0         0.01111000        12.01000000
  4442 lmp_009                 1 R01      A115a         0         0.02341000         1.00800000
  4443 lmp_004                 1 R01      A115b         0        -0.10289000        12.01000000
  4444 lmp_009                 1 R01      A115c         0         0.04701000         1.00800000
  4445 lmp_009                 1 R01      A115d         0         0.04701000         1.00800000
  4446 lmp_005                 1 R01      A115e         0        -0.03099000        12.01000000
  4447 lmp_005                 1 R01      A115f         0        -0.25069000        12.01000000
  4448 lmp_008                 1 R01      A1160         0         0.17281000         1.00800000
  4449 lmp_006                 1 R01      A1161         0         0.02131000        12.01000000
  4450 lmp_005                 1 R01      A1162         0         0.02031000        12.01000000
  4451 lmp_005                 1 R01      A1163         0        -0.24969000        12.01000000
  4452 lmp_008                 1 R01      A1164         0         0.17861000         1.00800000
  4453 lmp_005                 1 R01      A1165         0        -0.03239000        12.01000000
  4454 lmp_007                 1 R01      A1166         0         0.03221000        12.01000000
  4455 lmp_009                 1 R01      A1167         0         0.02561000         1.00800000
  4456 lmp_007                 1 R01      A1168         0         0.02991000        12.01000000
  4457 lmp_009                 1 R01      A1169         0         0.02761000         1.00800000
  4458 lmp_004                 1 R01      A116a         0         0.05471000        12.01000000
  4459 lmp_009                 1 R01      A116b         0         0.00921000         1.00800000
  4460 lmp_007                 1 R01      A116c         0         0.00911000        12.01000000
  4461 lmp_009                 1 R01      A116d         0         0.03851000         1.00800000
  4462 lmp_005                 1 R01      A116e         0        -0.12349000        12.01000000
  4463 lmp_005                 1 R01      A116f         0        -0.12549000        12.01000000
  4464 lmp_005                 1 R01      A1170         0         0.03581000        12.01000000
  4465 lmp_003                 1 R01      A1171         0        -0.11109000        12.01000000
  4466 lmp_009                 1 R01      A1172         0         0.04331000         1.00800000
  4467 lmp_009                 1 R01      A1173         0         0.04331000         1.00800000
  4468 lmp_009                 1 R01      A1174         0         0.04331000         1.00800000
  4469 lmp_005                 1 R01      A1175         0        -0.08649000        12.01000000
  4470 lmp_005                 1 R01      A1176         0        -0.09149000        12.01000000
  4471 lmp_005                 1 R01      A1177         0         0.05181000        12.01000000
  4472 lmp_003                 1 R01      A1178         0        -0.10009000        12.01000000
  4473 lmp_009                 1 R01      A1179         0         0.04551000         1.00800000
  4474 lmp_009                 1 R01      A117a         0         0.04551000         1.00800000
  4475 lmp_009                 1 R01      A117b         0         0.04551000         1.00800000
  4476 lmp_007                 1 R01      A117c         0         0.00531000        12.01000000
  4477 lmp_009                 1 R01      A117d         0         0.03971000         1.00800000
  4478 lmp_004                 1 R01      A117e         0         0.05571000        12.01000000
  4479 lmp_009                 1 R01      A117f         0         0.01041000         1.00800000
  4480 lmp_004                 1 R01      A1180         0        -0.21059000        12.01000000
  4481 lmp_009                 1 R01      A1181         0         0.05311000         1.00800000
  4482 lmp_009                 1 R01      A1182         0         0.05311000         1.00800000
  4483 lmp_005                 1 R01      A1183         0        -0.04569000        12.01000000
  4484 lmp_005                 1 R01      A1184         0        -0.20379000        12.01000000
  4485 lmp_008                 1 R01      A1185         0         0.15591000         1.00800000
  4486 lmp_003                 1 R01      A1186         0        -0.10048000        12.01000000
  4487 lmp_009                 1 R01      A1187         0         0.02361000         1.00800000
  4488 lmp_009                 1 R01      A1188         0         0.02361000         1.00800000
  4489 lmp_009                 1 R01      A1189         0         0.02361000         1.00800000
  4490 lmp_004                 1 R01      A118a         0         0.19001000        12.01000000
  4491 lmp_003                 1 R01      A118b         0        -0.17889000        12.01000000
  4492 lmp_009                 1 R01      A118c         0         0.04121000         1.00800000
  4493 lmp_009                 1 R01      A118d         0         0.04121000         1.00800000
  4494 lmp_009                 1 R01      A118e         0         0.04121000         1.00800000
  4495 lmp_005                 1 R01      A118f         0         0.00401000        12.01000000
  4496 lmp_006                 1 R01      A1190         0         0.00111000        12.01000000
  4497 lmp_005                 1 R01      A1191         0        -0.18989000        12.01000000
  4498 lmp_008                 1 R01      A1192         0         0.14431000         1.00800000
  4499 lmp_005                 1 R01      A1193         0        -0.04879000        12.01000000
  4500 lmp_007                 1 R01      A1194         0         0.03141000        12.01000000
  4501 lmp_009                 1 R01      A1195         0         0.03521000         1.00800000
  4502 lmp_007                 1 R01      A1196         0         0.01591000        12.01000000
  4503 lmp_009                 1 R01      A1197         0         0.03721000         1.00800000
  4504 lmp_004                 1 R01      A1198         0         0.02141000        12.01000000
  4505 lmp_009                 1 R01      A1199         0         0.01911000         1.00800000
  4506 lmp_007                 1 R01      A119a         0         0.02241000        12.01000000
  4507 lmp_009                 1 R01      A119b         0         0.03781000         1.00800000
  4508 lmp_007                 1 R01      A119c         0         0.01411000        12.01000000
  4509 lmp_009                 1 R01      A119d         0         0.03861000         1.00800000
  4510 lmp_004                 1 R01      A119e         0         0.01111000        12.01000000
  4511 lmp_009                 1 R01      A119f         0         0.02341000         1.00800000
  4512 lmp_004                 1 R01      A11a0         0        -0.10289000        12.01000000
  4513 lmp_009                 1 R01      A11a1         0         0.04701000         1.00800000
  4514 lmp_009                 1 R01      A11a2         0         0.04701000         1.00800000
  4515 lmp_005                 1 R01      A11a3         0        -0.03099000        12.01000000
  4516 lmp_005                 1 R01      A11a4         0        -0.25069000        12.01000000
  4517 lmp_008                 1 R01      A11a5         0         0.17281000         1.00800000
  4518 lmp_006                 1 R01      A11a6         0         0.02131000        12.01000000
  4519 lmp_005                 1 R01      A11a7         0         0.02031000        12.01000000
  4520 lmp_005                 1 R01      A11a8         0        -0.24969000        12.01000000
  4521 lmp_008                 1 R01      A11a9         0         0.17861000         1.00800000
  4522 lmp_005                 1 R01      A11aa         0        -0.03239000        12.01000000
  4523 lmp_007                 1 R01      A11ab         0         0.03221000        12.01000000
  4524 lmp_009                 1 R01      A11ac         0         0.02561000         1.00800000
  4525 lmp_007                 1 R01      A11ad         0         0.02991000        12.01000000
  4526 lmp_009                 1 R01      A11ae         0         0.02761000         1.00800000
  4527 lmp_004                 1 R01      A11af         0         0.05471000        12.01000000
  4528 lmp_009                 1 R01      A11b0         0         0.00921000         1.00800000
  4529 lmp_007                 1 R01      A11b1         0         0.00911000        12.01000000
  4530 lmp_009                 1 R01      A11b2         0         0.03851000         1.00800000
  4531 lmp_005                 1 R01      A11b3         0        -0.12349000        12.01000000
  4532 lmp_005                 1 R01      A11b4         0        -0.12549000        12.01000000
  4533 lmp_005                 1 R01      A11b5         0         0.03581000        12.01000000
  4534 lmp_003                 1 R01      A11b6         0        -0.11109000        12.01000000
  4535 lmp_009                 1 R01      A11b7         0         0.04331000         1.00800000
  4536 lmp_009                 1 R01      A11b8         0         0.04331000         1.00800000
  4537 lmp_009                 1 R01      A11b9         0         0.04331000         1.00800000
  4538 lmp_005                 1 R01      A11ba         0        -0.08649000        12.01000000
  4539 lmp_005                 1 R01      A11bb         0        -0.09149000        12.01000000
  4540 lmp_005                 1 R01      A11bc         0         0.05181000        12.01000000
  4541 lmp_003                 1 R01      A11bd         0        -0.10009000        12.01000000
  4542 lmp_009                 1 R01      A11be         0         0.04551000         1.00800000
  4543 lmp_009                 1 R01      A11bf         0         0.04551000         1.00800000
  4544 lmp_009                 1 R01      A11c0         0         0.04551000         1.00800000
  4545 lmp_007                 1 R01      A11c1         0         0.00531000        12.01000000
  4546 lmp_009                 1 R01      A11c2         0         0.03971000         1.00800000
  4547 lmp_004                 1 R01      A11c3         0         0.05571000        12.01000000
  4548 lmp_009                 1 R01      A11c4         0         0.01041000         1.00800000
  4549 lmp_004                 1 R01      A11c5         0        -0.21059000        12.01000000
  4550 lmp_009                 1 R01      A11c6         0         0.05311000         1.00800000
  4551 lmp_009                 1 R01      A11c7         0         0.05311000         1.00800000
  4552 lmp_005                 1 R01      A11c8         0        -0.04569000        12.01000000
  4553 lmp_005                 1 R01      A11c9         0        -0.20379000        12.01000000
  4554 lmp_008                 1 R01      A11ca         0         0.15591000         1.00800000
  4555 lmp_003                 1 R01      A11cb         0        -0.10048000        12.01000000
  4556 lmp_009                 1 R01      A11cc         0         0.02361000         1.00800000
  4557 lmp_009                 1 R01      A11cd         0         0.02361000         1.00800000
  4558 lmp_009                 1 R01      A11ce         0         0.02361000         1.00800000
  4559 lmp_004                 1 R01      A11cf         0         0.19001000        12.01000000
  4560 lmp_003                 1 R01      A11d0         0        -0.17889000        12.01000000
  4561 lmp_009                 1 R01      A11d1         0         0.04121000         1.00800000
  4562 lmp_009                 1 R01      A11d2         0         0.04121000         1.00800000
  4563 lmp_009                 1 R01      A11d3         0         0.04121000         1.00800000
  4564 lmp_005                 1 R01      A11d4         0         0.00401000        12.01000000
  4565 lmp_006                 1 R01      A11d5         0         0.00111000        12.01000000
  4566 lmp_005                 1 R01      A11d6         0        -0.18989000        12.01000000
  4567 lmp_008                 1 R01      A11d7         0         0.14431000         1.00800000
  4568 lmp_005                 1 R01      A11d8         0        -0.04879000        12.01000000
  4569 lmp_007                 1 R01      A11d9         0         0.03141000        12.01000000
  4570 lmp_009                 1 R01      A11da         0         0.03521000         1.00800000
  4571 lmp_007                 1 R01      A11db         0         0.01591000        12.01000000
  4572 lmp_009                 1 R01      A11dc         0         0.03721000         1.00800000
  4573 lmp_004                 1 R01      A11dd         0         0.02141000        12.01000000
  4574 lmp_009                 1 R01      A11de         0         0.01911000         1.00800000
  4575 lmp_007                 1 R01      A11df         0         0.02241000        12.01000000
  4576 lmp_009                 1 R01      A11e0         0         0.03781000         1.00800000
  4577 lmp_007                 1 R01      A11e1         0         0.01411000        12.01000000
  4578 lmp_009                 1 R01      A11e2         0         0.03861000         1.00800000
  4579 lmp_004                 1 R01      A11e3         0         0.01111000        12.01000000
  4580 lmp_009                 1 R01      A11e4         0         0.02341000         1.00800000
  4581 lmp_004                 1 R01      A11e5         0        -0.10289000        12.01000000
  4582 lmp_009                 1 R01      A11e6         0         0.04701000         1.00800000
  4583 lmp_009                 1 R01      A11e7         0         0.04701000         1.00800000
  4584 lmp_005                 1 R01      A11e8         0        -0.03099000        12.01000000
  4585 lmp_005                 1 R01      A11e9         0        -0.25069000        12.01000000
  4586 lmp_008                 1 R01      A11ea         0         0.17281000         1.00800000
  4587 lmp_006                 1 R01      A11eb         0         0.02131000        12.01000000
  4588 lmp_005                 1 R01      A11ec         0         0.02031000        12.01000000
  4589 lmp_005                 1 R01      A11ed         0        -0.24969000        12.01000000
  4590 lmp_008                 1 R01      A11ee         0         0.17861000         1.00800000
  4591 lmp_005                 1 R01      A11ef         0        -0.03239000        12.01000000
  4592 lmp_007                 1 R01      A11f0         0         0.03221000        12.01000000
  4593 lmp_009                 1 R01      A11f1         0         0.02561000         1.00800000
  4594 lmp_007                 1 R01      A11f2         0         0.02991000        12.01000000
  4595 lmp_009                 1 R01      A11f3         0         0.02761000         1.00800000
  4596 lmp_004                 1 R01      A11f4         0         0.05471000        12.01000000
  4597 lmp_009                 1 R01      A11f5         0         0.00921000         1.00800000
  4598 lmp_007                 1 R01      A11f6         0         0.00911000        12.01000000
  4599 lmp_009                 1 R01      A11f7         0         0.03851000         1.00800000
  4600 lmp_005                 1 R01      A11f8         0        -0.12349000        12.01000000
  4601 lmp_005                 1 R01      A11f9         0        -0.12549000        12.01000000
  4602 lmp_005                 1 R01      A11fa         0         0.03581000        12.01000000
  4603 lmp_003                 1 R01      A11fb         0        -0.11109000        12.01000000
  4604 lmp_009                 1 R01      A11fc         0         0.04331000         1.00800000
  4605 lmp_009                 1 R01      A11fd         0         0.04331000         1.00800000
  4606 lmp_009                 1 R01      A11fe         0         0.04331000         1.00800000
  4607 lmp_005                 1 R01      A11ff         0        -0.08649000        12.01000000
  4608 lmp_005                 1 R01      A1200         0        -0.09149000        12.01000000
  4609 lmp_005                 1 R01      A1201         0         0.05181000        12.01000000
  4610 lmp_003                 1 R01      A1202         0        -0.10009000        12.01000000
  4611 lmp_009                 1 R01      A1203         0         0.04551000         1.00800000
  4612 lmp_009                 1 R01      A1204         0         0.04551000         1.00800000
  4613 lmp_009                 1 R01      A1205         0         0.04551000         1.00800000
  4614 lmp_007                 1 R01      A1206         0         0.00531000        12.01000000
  4615 lmp_009                 1 R01      A1207         0         0.03971000         1.00800000
  4616 lmp_004                 1 R01      A1208         0         0.05571000        12.01000000
  4617 lmp_009                 1 R01      A1209         0         0.01041000         1.00800000
  4618 lmp_004                 1 R01      A120a         0        -0.21059000        12.01000000
  4619 lmp_009                 1 R01      A120b         0         0.05311000         1.00800000
  4620 lmp_009                 1 R01      A120c         0         0.05311000         1.00800000
  4621 lmp_005                 1 R01      A120d         0        -0.04569000        12.01000000
  4622 lmp_005                 1 R01      A120e         0        -0.20379000        12.01000000
  4623 lmp_008                 1 R01      A120f         0         0.15591000         1.00800000
  4624 lmp_003                 1 R01      A1210         0        -0.10048000        12.01000000
  4625 lmp_009                 1 R01      A1211         0         0.02361000         1.00800000
  4626 lmp_009                 1 R01      A1212         0         0.02361000         1.00800000
  4627 lmp_009                 1 R01      A1213         0         0.02361000         1.00800000
  4628 lmp_004                 1 R01      A1214         0         0.19001000        12.01000000
  4629 lmp_003                 1 R01      A1215         0        -0.17889000        12.01000000
  4630 lmp_009                 1 R01      A1216         0         0.04121000         1.00800000
  4631 lmp_009                 1 R01      A1217         0         0.04121000         1.00800000
  4632 lmp_009                 1 R01      A1218         0         0.04121000         1.00800000
  4633 lmp_005                 1 R01      A1219         0         0.00401000        12.01000000
  4634 lmp_006                 1 R01      A121a         0         0.00111000        12.01000000
  4635 lmp_005                 1 R01      A121b         0        -0.18989000        12.01000000
  4636 lmp_008                 1 R01      A121c         0         0.14431000         1.00800000
  4637 lmp_005                 1 R01      A121d         0        -0.04879000        12.01000000
  4638 lmp_007                 1 R01      A121e         0         0.03141000        12.01000000
  4639 lmp_009                 1 R01      A121f         0         0.03521000         1.00800000
  4640 lmp_007                 1 R01      A1220         0         0.01591000        12.01000000
  4641 lmp_009                 1 R01      A1221         0         0.03721000         1.00800000
  4642 lmp_004                 1 R01      A1222         0         0.02141000        12.01000000
  4643 lmp_009                 1 R01      A1223         0         0.01911000         1.00800000
  4644 lmp_007                 1 R01      A1224         0         0.02241000        12.01000000
  4645 lmp_009                 1 R01      A1225         0         0.03781000         1.00800000
  4646 lmp_007                 1 R01      A1226         0         0.01411000        12.01000000
  4647 lmp_009                 1 R01      A1227         0         0.03861000         1.00800000
  4648 lmp_004                 1 R01      A1228         0         0.01111000        12.01000000
  4649 lmp_009                 1 R01      A1229         0         0.02341000         1.00800000
  4650 lmp_004                 1 R01      A122a         0        -0.10289000        12.01000000
  4651 lmp_009                 1 R01      A122b         0         0.04701000         1.00800000
  4652 lmp_009                 1 R01      A122c         0         0.04701000         1.00800000
  4653 lmp_005                 1 R01      A122d         0        -0.03099000        12.01000000
  4654 lmp_005                 1 R01      A122e         0        -0.25069000        12.01000000
  4655 lmp_008                 1 R01      A122f         0         0.17281000         1.00800000
  4656 lmp_006                 1 R01      A1230         0         0.02131000        12.01000000
  4657 lmp_005                 1 R01      A1231         0         0.02031000        12.01000000
  4658 lmp_005                 1 R01      A1232         0        -0.24969000        12.01000000
  4659 lmp_008                 1 R01      A1233         0         0.17861000         1.00800000
  4660 lmp_005                 1 R01      A1234         0        -0.03239000        12.01000000
  4661 lmp_007                 1 R01      A1235         0         0.03221000        12.01000000
  4662 lmp_009                 1 R01      A1236         0         0.02561000         1.00800000
  4663 lmp_007                 1 R01      A1237         0         0.02991000        12.01000000
  4664 lmp_009                 1 R01      A1238         0         0.02761000         1.00800000
  4665 lmp_004                 1 R01      A1239         0         0.05471000        12.01000000
  4666 lmp_009                 1 R01      A123a         0         0.00921000         1.00800000
  4667 lmp_007                 1 R01      A123b         0         0.00911000        12.01000000
  4668 lmp_009                 1 R01      A123c         0         0.03851000         1.00800000
  4669 lmp_005                 1 R01      A123d         0        -0.12349000        12.01000000
  4670 lmp_005                 1 R01      A123e         0        -0.12549000        12.01000000
  4671 lmp_005                 1 R01      A123f         0         0.03581000        12.01000000
  4672 lmp_003                 1 R01      A1240         0        -0.11109000        12.01000000
  4673 lmp_009                 1 R01      A1241         0         0.04331000         1.00800000
  4674 lmp_009                 1 R01      A1242         0         0.04331000         1.00800000
  4675 lmp_009                 1 R01      A1243         0         0.04331000         1.00800000
  4676 lmp_005                 1 R01      A1244         0        -0.08649000        12.01000000
  4677 lmp_005                 1 R01      A1245         0        -0.09149000        12.01000000
  4678 lmp_005                 1 R01      A1246         0         0.05181000        12.01000000
  4679 lmp_003                 1 R01      A1247         0        -0.10009000        12.01000000
  4680 lmp_009                 1 R01      A1248         0         0.04551000         1.00800000
  4681 lmp_009                 1 R01      A1249         0         0.04551000         1.00800000
  4682 lmp_009                 1 R01      A124a         0         0.04551000         1.00800000
  4683 lmp_007                 1 R01      A124b         0         0.00531000        12.01000000
  4684 lmp_009                 1 R01      A124c         0         0.03971000         1.00800000
  4685 lmp_004                 1 R01      A124d         0         0.05571000        12.01000000
  4686 lmp_009                 1 R01      A124e         0         0.01041000         1.00800000
  4687 lmp_004                 1 R01      A124f         0        -0.21059000        12.01000000
  4688 lmp_009                 1 R01      A1250         0         0.05311000         1.00800000
  4689 lmp_009                 1 R01      A1251         0         0.05311000         1.00800000
  4690 lmp_005                 1 R01      A1252         0        -0.04569000        12.01000000
  4691 lmp_005                 1 R01      A1253         0        -0.20379000        12.01000000
  4692 lmp_008                 1 R01      A1254         0         0.15591000         1.00800000
  4693 lmp_003                 1 R01      A1255         0        -0.10048000        12.01000000
  4694 lmp_009                 1 R01      A1256         0         0.02361000         1.00800000
  4695 lmp_009                 1 R01      A1257         0         0.02361000         1.00800000
  4696 lmp_009                 1 R01      A1258         0         0.02361000         1.00800000
  4697 lmp_004                 1 R01      A1259         0         0.19001000        12.01000000
  4698 lmp_003                 1 R01      A125a         0        -0.17889000        12.01000000
  4699 lmp_009                 1 R01      A125b         0         0.04121000         1.00800000
  4700 lmp_009                 1 R01      A125c         0         0.04121000         1.00800000
  4701 lmp_009                 1 R01      A125d         0         0.04121000         1.00800000
  4702 lmp_005                 1 R01      A125e         0         0.00401000        12.01000000
  4703 lmp_006                 1 R01      A125f         0         0.00111000        12.01000000
  4704 lmp_005                 1 R01      A1260         0        -0.18989000        12.01000000
  4705 lmp_008                 1 R01      A1261         0         0.14431000         1.00800000
  4706 lmp_005                 1 R01      A1262         0        -0.04879000        12.01000000
  4707 lmp_007                 1 R01      A1263         0         0.03141000        12.01000000
  4708 lmp_009                 1 R01      A1264         0         0.03521000         1.00800000
  4709 lmp_007                 1 R01      A1265         0         0.01591000        12.01000000
  4710 lmp_009                 1 R01      A1266         0         0.03721000         1.00800000
  4711 lmp_004                 1 R01      A1267         0         0.02141000        12.01000000
  4712 lmp_009                 1 R01      A1268         0         0.01911000         1.00800000
  4713 lmp_007                 1 R01      A1269         0         0.02241000        12.01000000
  4714 lmp_009                 1 R01      A126a         0         0.03781000         1.00800000
  4715 lmp_007                 1 R01      A126b         0         0.01411000        12.01000000
  4716 lmp_009                 1 R01      A126c         0         0.03861000         1.00800000
  4717 lmp_004                 1 R01      A126d         0         0.01111000        12.01000000
  4718 lmp_009                 1 R01      A126e         0         0.02341000         1.00800000
  4719 lmp_004                 1 R01      A126f         0        -0.10289000        12.01000000
  4720 lmp_009                 1 R01      A1270         0         0.04701000         1.00800000
  4721 lmp_009                 1 R01      A1271         0         0.04701000         1.00800000
  4722 lmp_005                 1 R01      A1272         0        -0.03099000        12.01000000
  4723 lmp_005                 1 R01      A1273         0        -0.25069000        12.01000000
  4724 lmp_008                 1 R01      A1274         0         0.17281000         1.00800000
  4725 lmp_006                 1 R01      A1275         0         0.02131000        12.01000000
  4726 lmp_005                 1 R01      A1276         0         0.02031000        12.01000000
  4727 lmp_005                 1 R01      A1277         0        -0.24969000        12.01000000
  4728 lmp_008                 1 R01      A1278         0         0.17861000         1.00800000
  4729 lmp_005                 1 R01      A1279         0        -0.03239000        12.01000000
  4730 lmp_007                 1 R01      A127a         0         0.03221000        12.01000000
  4731 lmp_009                 1 R01      A127b         0         0.02561000         1.00800000
  4732 lmp_007                 1 R01      A127c         0         0.02991000        12.01000000
  4733 lmp_009                 1 R01      A127d         0         0.02761000         1.00800000
  4734 lmp_004                 1 R01      A127e         0         0.05471000        12.01000000
  4735 lmp_009                 1 R01      A127f         0         0.00921000         1.00800000
  4736 lmp_007                 1 R01      A1280         0         0.00911000        12.01000000
  4737 lmp_009                 1 R01      A1281         0         0.03851000         1.00800000
  4738 lmp_005                 1 R01      A1282         0        -0.12349000        12.01000000
  4739 lmp_005                 1 R01      A1283         0        -0.12549000        12.01000000
  4740 lmp_005                 1 R01      A1284         0         0.03581000        12.01000000
  4741 lmp_003                 1 R01      A1285         0        -0.11109000        12.01000000
  4742 lmp_009                 1 R01      A1286         0         0.04331000         1.00800000
  4743 lmp_009                 1 R01      A1287         0         0.04331000         1.00800000
  4744 lmp_009                 1 R01      A1288         0         0.04331000         1.00800000
  4745 lmp_005                 1 R01      A1289         0        -0.08649000        12.01000000
  4746 lmp_005                 1 R01      A128a         0        -0.09149000        12.01000000
  4747 lmp_005                 1 R01      A128b         0         0.05181000        12.01000000
  4748 lmp_003                 1 R01      A128c         0        -0.10009000        12.01000000
  4749 lmp_009                 1 R01      A128d         0         0.04551000         1.00800000
  4750 lmp_009                 1 R01      A128e         0         0.04551000         1.00800000
  4751 lmp_009                 1 R01      A128f         0         0.04551000         1.00800000
  4752 lmp_007                 1 R01      A1290         0         0.00531000        12.01000000
  4753 lmp_009                 1 R01      A1291         0         0.03971000         1.00800000
  4754 lmp_004                 1 R01      A1292         0         0.05571000        12.01000000
  4755 lmp_009                 1 R01      A1293         0         0.01041000         1.00800000
  4756 lmp_004                 1 R01      A1294         0        -0.21059000        12.01000000
  4757 lmp_009                 1 R01      A1295         0         0.05311000         1.00800000
  4758 lmp_009                 1 R01      A1296         0         0.05311000         1.00800000
  4759 lmp_005                 1 R01      A1297         0        -0.04569000        12.01000000
  4760 lmp_005                 1 R01      A1298         0        -0.20379000        12.01000000
  4761 lmp_008                 1 R01      A1299         0         0.15591000         1.00800000
  4762 lmp_003                 1 R01      A129a         0        -0.10048000        12.01000000
  4763 lmp_009                 1 R01      A129b         0         0.02361000         1.00800000
  4764 lmp_009                 1 R01      A129c         0         0.02361000         1.00800000
  4765 lmp_009                 1 R01      A129d         0         0.02361000         1.00800000
  4766 lmp_004                 1 R01      A129e         0         0.19001000        12.01000000
  4767 lmp_003                 1 R01      A129f         0        -0.17889000        12.01000000
  4768 lmp_009                 1 R01      A12a0         0         0.04121000         1.00800000
  4769 lmp_009                 1 R01      A12a1         0         0.04121000         1.00800000
  4770 lmp_009                 1 R01      A12a2         0         0.04121000         1.00800000
  4771 lmp_005                 1 R01      A12a3         0         0.00401000        12.01000000
  4772 lmp_006                 1 R01      A12a4         0         0.00111000        12.01000000
  4773 lmp_005                 1 R01      A12a5         0        -0.18989000        12.01000000
  4774 lmp_008                 1 R01      A12a6         0         0.14431000         1.00800000
  4775 lmp_005                 1 R01      A12a7         0        -0.04879000        12.01000000
  4776 lmp_007                 1 R01      A12a8         0         0.03141000        12.01000000
  4777 lmp_009                 1 R01      A12a9         0         0.03521000         1.00800000
  4778 lmp_007                 1 R01      A12aa         0         0.01591000        12.01000000
  4779 lmp_009                 1 R01      A12ab         0         0.03721000         1.00800000
  4780 lmp_004                 1 R01      A12ac         0         0.02141000        12.01000000
  4781 lmp_009                 1 R01      A12ad         0         0.01911000         1.00800000
  4782 lmp_007                 1 R01      A12ae         0         0.02241000        12.01000000
  4783 lmp_009                 1 R01      A12af         0         0.03781000         1.00800000
  4784 lmp_007                 1 R01      A12b0         0         0.01411000        12.01000000
  4785 lmp_009                 1 R01      A12b1         0         0.03861000         1.00800000
  4786 lmp_004                 1 R01      A12b2         0         0.01111000        12.01000000
  4787 lmp_009                 1 R01      A12b3         0         0.02341000         1.00800000
  4788 lmp_004                 1 R01      A12b4         0        -0.10289000        12.01000000
  4789 lmp_009                 1 R01      A12b5         0         0.04701000         1.00800000
  4790 lmp_009                 1 R01      A12b6         0         0.04701000         1.00800000
  4791 lmp_005                 1 R01      A12b7         0        -0.03099000        12.01000000
  4792 lmp_005                 1 R01      A12b8         0        -0.25069000        12.01000000
  4793 lmp_008                 1 R01      A12b9         0         0.17281000         1.00800000
  4794 lmp_006                 1 R01      A12ba         0         0.02131000        12.01000000
  4795 lmp_005                 1 R01      A12bb         0         0.02031000        12.01000000
  4796 lmp_005                 1 R01      A12bc         0        -0.24969000        12.01000000
  4797 lmp_008                 1 R01      A12bd         0         0.17861000         1.00800000
  4798 lmp_005                 1 R01      A12be         0        -0.03239000        12.01000000
  4799 lmp_007                 1 R01      A12bf         0         0.03221000        12.01000000
  4800 lmp_009                 1 R01      A12c0         0         0.02561000         1.00800000
  4801 lmp_007                 1 R01      A12c1         0         0.02991000        12.01000000
  4802 lmp_009                 1 R01      A12c2         0         0.02761000         1.00800000
  4803 lmp_004                 1 R01      A12c3         0         0.05471000        12.01000000
  4804 lmp_009                 1 R01      A12c4         0         0.00921000         1.00800000
  4805 lmp_007                 1 R01      A12c5         0         0.00911000        12.01000000
  4806 lmp_009                 1 R01      A12c6         0         0.03851000         1.00800000
  4807 lmp_005                 1 R01      A12c7         0        -0.12349000        12.01000000
  4808 lmp_005                 1 R01      A12c8         0        -0.12549000        12.01000000
  4809 lmp_005                 1 R01      A12c9         0         0.03581000        12.01000000
  4810 lmp_003                 1 R01      A12ca         0        -0.11109000        12.01000000
  4811 lmp_009                 1 R01      A12cb         0         0.04331000         1.00800000
  4812 lmp_009                 1 R01      A12cc         0         0.04331000         1.00800000
  4813 lmp_009                 1 R01      A12cd         0         0.04331000         1.00800000
  4814 lmp_005                 1 R01      A12ce         0        -0.08649000        12.01000000
  4815 lmp_005                 1 R01      A12cf         0        -0.09149000        12.01000000
  4816 lmp_005                 1 R01      A12d0         0         0.05181000        12.01000000
  4817 lmp_003                 1 R01      A12d1         0        -0.10009000        12.01000000
  4818 lmp_009                 1 R01      A12d2         0         0.04551000         1.00800000
  4819 lmp_009                 1 R01      A12d3         0         0.04551000         1.00800000
  4820 lmp_009                 1 R01      A12d4         0         0.04551000         1.00800000
  4821 lmp_007                 1 R01      A12d5         0         0.00531000        12.01000000
  4822 lmp_009                 1 R01      A12d6         0         0.03971000         1.00800000
  4823 lmp_004                 1 R01      A12d7         0         0.05571000        12.01000000
  4824 lmp_009                 1 R01      A12d8         0         0.01041000         1.00800000
  4825 lmp_004                 1 R01      A12d9         0        -0.21059000        12.01000000
  4826 lmp_009                 1 R01      A12da         0         0.05311000         1.00800000
  4827 lmp_009                 1 R01      A12db         0         0.05311000         1.00800000
  4828 lmp_005                 1 R01      A12dc         0        -0.04569000        12.01000000
  4829 lmp_005                 1 R01      A12dd         0        -0.20379000        12.01000000
  4830 lmp_008                 1 R01      A12de         0         0.15591000         1.00800000
  4831 lmp_003                 1 R01      A12df         0        -0.10048000        12.01000000
  4832 lmp_009                 1 R01      A12e0         0         0.02361000         1.00800000
  4833 lmp_009                 1 R01      A12e1         0         0.02361000         1.00800000
  4834 lmp_009                 1 R01      A12e2         0         0.02361000         1.00800000
  4835 lmp_004                 1 R01      A12e3         0         0.19001000        12.01000000
  4836 lmp_003                 1 R01      A12e4         0        -0.17889000        12.01000000
  4837 lmp_009                 1 R01      A12e5         0         0.04121000         1.00800000
  4838 lmp_009                 1 R01      A12e6         0         0.04121000         1.00800000
  4839 lmp_009                 1 R01      A12e7         0         0.04121000         1.00800000
  4840 lmp_005                 1 R01      A12e8         0         0.00401000        12.01000000
  4841 lmp_006                 1 R01      A12e9         0         0.00111000        12.01000000
  4842 lmp_005                 1 R01      A12ea         0        -0.18989000        12.01000000
  4843 lmp_008                 1 R01      A12eb         0         0.14431000         1.00800000
  4844 lmp_005                 1 R01      A12ec         0        -0.04879000        12.01000000
  4845 lmp_007                 1 R01      A12ed         0         0.03141000        12.01000000
  4846 lmp_009                 1 R01      A12ee         0         0.03521000         1.00800000
  4847 lmp_007                 1 R01      A12ef         0         0.01591000        12.01000000
  4848 lmp_009                 1 R01      A12f0         0         0.03721000         1.00800000
  4849 lmp_004                 1 R01      A12f1         0         0.02141000        12.01000000
  4850 lmp_009                 1 R01      A12f2         0         0.01911000         1.00800000
  4851 lmp_007                 1 R01      A12f3         0         0.02241000        12.01000000
  4852 lmp_009                 1 R01      A12f4         0         0.03781000         1.00800000
  4853 lmp_007                 1 R01      A12f5         0         0.01411000        12.01000000
  4854 lmp_009                 1 R01      A12f6         0         0.03861000         1.00800000
  4855 lmp_004                 1 R01      A12f7         0         0.01111000        12.01000000
  4856 lmp_009                 1 R01      A12f8         0         0.02341000         1.00800000
  4857 lmp_004                 1 R01      A12f9         0        -0.10289000        12.01000000
  4858 lmp_009                 1 R01      A12fa         0         0.04701000         1.00800000
  4859 lmp_009                 1 R01      A12fb         0         0.04701000         1.00800000
  4860 lmp_005                 1 R01      A12fc         0        -0.03099000        12.01000000
  4861 lmp_005                 1 R01      A12fd         0        -0.25069000        12.01000000
  4862 lmp_008                 1 R01      A12fe         0         0.17281000         1.00800000
  4863 lmp_006                 1 R01      A12ff         0         0.02131000        12.01000000
  4864 lmp_005                 1 R01      A1300         0         0.02031000        12.01000000
  4865 lmp_005                 1 R01      A1301         0        -0.24969000        12.01000000
  4866 lmp_008                 1 R01      A1302         0         0.17861000         1.00800000
  4867 lmp_005                 1 R01      A1303         0        -0.03239000        12.01000000
  4868 lmp_007                 1 R01      A1304         0         0.03221000        12.01000000
  4869 lmp_009                 1 R01      A1305         0         0.02561000         1.00800000
  4870 lmp_007                 1 R01      A1306         0         0.02991000        12.01000000
  4871 lmp_009                 1 R01      A1307         0         0.02761000         1.00800000
  4872 lmp_004                 1 R01      A1308         0         0.05471000        12.01000000
  4873 lmp_009                 1 R01      A1309         0         0.00921000         1.00800000
  4874 lmp_007                 1 R01      A130a         0         0.00911000        12.01000000
  4875 lmp_009                 1 R01      A130b         0         0.03851000         1.00800000
  4876 lmp_005                 1 R01      A130c         0        -0.12349000        12.01000000
  4877 lmp_005                 1 R01      A130d         0        -0.12549000        12.01000000
  4878 lmp_005                 1 R01      A130e         0         0.03581000        12.01000000
  4879 lmp_003                 1 R01      A130f         0        -0.11109000        12.01000000
  4880 lmp_009                 1 R01      A1310         0         0.04331000         1.00800000
  4881 lmp_009                 1 R01      A1311         0         0.04331000         1.00800000
  4882 lmp_009                 1 R01      A1312         0         0.04331000         1.00800000
  4883 lmp_005                 1 R01      A1313         0        -0.08649000        12.01000000
  4884 lmp_005                 1 R01      A1314         0        -0.09149000        12.01000000
  4885 lmp_005                 1 R01      A1315         0         0.05181000        12.01000000
  4886 lmp_003                 1 R01      A1316         0        -0.10009000        12.01000000
  4887 lmp_009                 1 R01      A1317         0         0.04551000         1.00800000
  4888 lmp_009                 1 R01      A1318         0         0.04551000         1.00800000
  4889 lmp_009                 1 R01      A1319         0         0.04551000         1.00800000
  4890 lmp_007                 1 R01      A131a         0         0.00531000        12.01000000
  4891 lmp_009                 1 R01      A131b         0         0.03971000         1.00800000
  4892 lmp_004                 1 R01      A131c         0         0.05571000        12.01000000
  4893 lmp_009                 1 R01      A131d         0         0.01041000         1.00800000
  4894 lmp_004                 1 R01      A131e         0        -0.21059000        12.01000000
  4895 lmp_009                 1 R01      A131f         0         0.05311000         1.00800000
  4896 lmp_009                 1 R01      A1320         0         0.05311000         1.00800000
  4897 lmp_005                 1 R01      A1321         0        -0.04569000        12.01000000
  4898 lmp_005                 1 R01      A1322         0        -0.20379000        12.01000000
  4899 lmp_008                 1 R01      A1323         0         0.15591000         1.00800000
  4900 lmp_003                 1 R01      A1324         0        -0.10048000        12.01000000
  4901 lmp_009                 1 R01      A1325         0         0.02361000         1.00800000
  4902 lmp_009                 1 R01      A1326         0         0.02361000         1.00800000
  4903 lmp_009                 1 R01      A1327         0         0.02361000         1.00800000
  4904 lmp_004                 1 R01      A1328         0         0.19001000        12.01000000
  4905 lmp_003                 1 R01      A1329         0        -0.17889000        12.01000000
  4906 lmp_009                 1 R01      A132a         0         0.04121000         1.00800000
  4907 lmp_009                 1 R01      A132b         0         0.04121000         1.00800000
  4908 lmp_009                 1 R01      A132c         0         0.04121000         1.00800000
  4909 lmp_005                 1 R01      A132d         0         0.00401000        12.01000000
  4910 lmp_006                 1 R01      A132e         0         0.00111000        12.01000000
  4911 lmp_005                 1 R01      A132f         0        -0.18989000        12.01000000
  4912 lmp_008                 1 R01      A1330         0         0.14431000         1.00800000
  4913 lmp_005                 1 R01      A1331         0        -0.04879000        12.01000000
  4914 lmp_007                 1 R01      A1332         0         0.03141000        12.01000000
  4915 lmp_009                 1 R01      A1333         0         0.03521000         1.00800000
  4916 lmp_007                 1 R01      A1334         0         0.01591000        12.01000000
  4917 lmp_009                 1 R01      A1335         0         0.03721000         1.00800000
  4918 lmp_004                 1 R01      A1336         0         0.02141000        12.01000000
  4919 lmp_009                 1 R01      A1337         0         0.01911000         1.00800000
  4920 lmp_007                 1 R01      A1338         0         0.02241000        12.01000000
  4921 lmp_009                 1 R01      A1339         0         0.03781000         1.00800000
  4922 lmp_007                 1 R01      A133a         0         0.01411000        12.01000000
  4923 lmp_009                 1 R01      A133b         0         0.03861000         1.00800000
  4924 lmp_004                 1 R01      A133c         0         0.01111000        12.01000000
  4925 lmp_009                 1 R01      A133d         0         0.02341000         1.00800000
  4926 lmp_004                 1 R01      A133e         0        -0.10289000        12.01000000
  4927 lmp_009                 1 R01      A133f         0         0.04701000         1.00800000
  4928 lmp_009                 1 R01      A1340         0         0.04701000         1.00800000
  4929 lmp_005                 1 R01      A1341         0        -0.03099000        12.01000000
  4930 lmp_005                 1 R01      A1342         0        -0.25069000        12.01000000
  4931 lmp_008                 1 R01      A1343         0         0.17281000         1.00800000
  4932 lmp_006                 1 R01      A1344         0         0.02131000        12.01000000
  4933 lmp_005                 1 R01      A1345         0         0.02031000        12.01000000
  4934 lmp_005                 1 R01      A1346         0        -0.24969000        12.01000000
  4935 lmp_008                 1 R01      A1347         0         0.17861000         1.00800000
  4936 lmp_005                 1 R01      A1348         0        -0.03239000        12.01000000
  4937 lmp_007                 1 R01      A1349         0         0.03221000        12.01000000
  4938 lmp_009                 1 R01      A134a         0         0.02561000         1.00800000
  4939 lmp_007                 1 R01      A134b         0         0.02991000        12.01000000
  4940 lmp_009                 1 R01      A134c         0         0.02761000         1.00800000
  4941 lmp_004                 1 R01      A134d         0         0.05471000        12.01000000
  4942 lmp_009                 1 R01      A134e         0         0.00921000         1.00800000
  4943 lmp_007                 1 R01      A134f         0         0.00911000        12.01000000
  4944 lmp_009                 1 R01      A1350         0         0.03851000         1.00800000
  4945 lmp_005                 1 R01      A1351         0        -0.12349000        12.01000000
  4946 lmp_005                 1 R01      A1352         0        -0.12549000        12.01000000
  4947 lmp_005                 1 R01      A1353         0         0.03581000        12.01000000
  4948 lmp_003                 1 R01      A1354         0        -0.11109000        12.01000000
  4949 lmp_009                 1 R01      A1355         0         0.04331000         1.00800000
  4950 lmp_009                 1 R01      A1356         0         0.04331000         1.00800000
  4951 lmp_009                 1 R01      A1357         0         0.04331000         1.00800000
  4952 lmp_005                 1 R01      A1358         0        -0.08649000        12.01000000
  4953 lmp_005                 1 R01      A1359         0        -0.09149000        12.01000000
  4954 lmp_005                 1 R01      A135a         0         0.05181000        12.01000000
  4955 lmp_003                 1 R01      A135b         0        -0.10009000        12.01000000
  4956 lmp_009                 1 R01      A135c         0         0.04551000         1.00800000
  4957 lmp_009                 1 R01      A135d         0         0.04551000         1.00800000
  4958 lmp_009                 1 R01      A135e         0         0.04551000         1.00800000
  4959 lmp_007                 1 R01      A135f         0         0.00531000        12.01000000
  4960 lmp_009                 1 R01      A1360         0         0.03971000         1.00800000
  4961 lmp_004                 1 R01      A1361         0         0.05571000        12.01000000
  4962 lmp_009                 1 R01      A1362         0         0.01041000         1.00800000
  4963 lmp_004                 1 R01      A1363         0        -0.21059000        12.01000000
  4964 lmp_009                 1 R01      A1364         0         0.05311000         1.00800000
  4965 lmp_009                 1 R01      A1365         0         0.05311000         1.00800000
  4966 lmp_005                 1 R01      A1366         0        -0.04569000        12.01000000
  4967 lmp_005                 1 R01      A1367         0        -0.20379000        12.01000000
  4968 lmp_008                 1 R01      A1368         0         0.15591000         1.00800000
  4969 lmp_003                 1 R01      A1369         0        -0.10048000        12.01000000
  4970 lmp_009                 1 R01      A136a         0         0.02361000         1.00800000
  4971 lmp_009                 1 R01      A136b         0         0.02361000         1.00800000
  4972 lmp_009                 1 R01      A136c         0         0.02361000         1.00800000
  4973 lmp_004                 1 R01      A136d         0         0.19001000        12.01000000
  4974 lmp_003                 1 R01      A136e         0        -0.17889000        12.01000000
  4975 lmp_009                 1 R01      A136f         0         0.04121000         1.00800000
  4976 lmp_009                 1 R01      A1370         0         0.04121000         1.00800000
  4977 lmp_009                 1 R01      A1371         0         0.04121000         1.00800000
  4978 lmp_005                 1 R01      A1372         0         0.00401000        12.01000000
  4979 lmp_006                 1 R01      A1373         0         0.00111000        12.01000000
  4980 lmp_005                 1 R01      A1374         0        -0.18989000        12.01000000
  4981 lmp_008                 1 R01      A1375         0         0.14431000         1.00800000
  4982 lmp_005                 1 R01      A1376         0        -0.04879000        12.01000000
  4983 lmp_007                 1 R01      A1377         0         0.03141000        12.01000000
  4984 lmp_009                 1 R01      A1378         0         0.03521000         1.00800000
  4985 lmp_007                 1 R01      A1379         0         0.01591000        12.01000000
  4986 lmp_009                 1 R01      A137a         0         0.03721000         1.00800000
  4987 lmp_004                 1 R01      A137b         0         0.02141000        12.01000000
  4988 lmp_009                 1 R01      A137c         0         0.01911000         1.00800000
  4989 lmp_007                 1 R01      A137d         0         0.02241000        12.01000000
  4990 lmp_009                 1 R01      A137e         0         0.03781000         1.00800000
  4991 lmp_007                 1 R01      A137f         0         0.01411000        12.01000000
  4992 lmp_009                 1 R01      A1380         0         0.03861000         1.00800000
  4993 lmp_004                 1 R01      A1381         0         0.01111000        12.01000000
  4994 lmp_009                 1 R01      A1382         0         0.02341000         1.00800000
  4995 lmp_004                 1 R01      A1383         0        -0.10289000        12.01000000
  4996 lmp_009                 1 R01      A1384         0         0.04701000         1.00800000
  4997 lmp_009                 1 R01      A1385         0         0.04701000         1.00800000
  4998 lmp_005                 1 R01      A1386         0        -0.03099000        12.01000000
  4999 lmp_005                 1 R01      A1387         0        -0.25069000        12.01000000
  5000 lmp_008                 1 R01      A1388         0         0.17281000         1.00800000
  5001 lmp_006                 1 R01      A1389         0         0.02131000        12.01000000
  5002 lmp_005                 1 R01      A138a         0         0.02031000        12.01000000
  5003 lmp_005                 1 R01      A138b         0        -0.24969000        12.01000000
  5004 lmp_008                 1 R01      A138c         0         0.17861000         1.00800000
  5005 lmp_005                 1 R01      A138d         0        -0.03239000        12.01000000
  5006 lmp_007                 1 R01      A138e         0         0.03221000        12.01000000
  5007 lmp_009                 1 R01      A138f         0         0.02561000         1.00800000
  5008 lmp_007                 1 R01      A1390         0         0.02991000        12.01000000
  5009 lmp_009                 1 R01      A1391         0         0.02761000         1.00800000
  5010 lmp_004                 1 R01      A1392         0         0.05471000        12.01000000
  5011 lmp_009                 1 R01      A1393         0         0.00921000         1.00800000
  5012 lmp_007                 1 R01      A1394         0         0.00911000        12.01000000
  5013 lmp_009                 1 R01      A1395         0         0.03851000         1.00800000
  5014 lmp_005                 1 R01      A1396         0        -0.12349000        12.01000000
  5015 lmp_005                 1 R01      A1397         0        -0.12549000        12.01000000
  5016 lmp_005                 1 R01      A1398         0         0.03581000        12.01000000
  5017 lmp_003                 1 R01      A1399         0        -0.11109000        12.01000000
  5018 lmp_009                 1 R01      A139a         0         0.04331000         1.00800000
  5019 lmp_009                 1 R01      A139b         0         0.04331000         1.00800000
  5020 lmp_009                 1 R01      A139c         0         0.04331000         1.00800000
  5021 lmp_005                 1 R01      A139d         0        -0.08649000        12.01000000
  5022 lmp_005                 1 R01      A139e         0        -0.09149000        12.01000000
  5023 lmp_005                 1 R01      A139f         0         0.05181000        12.01000000
  5024 lmp_003                 1 R01      A13a0         0        -0.10009000        12.01000000
  5025 lmp_009                 1 R01      A13a1         0         0.04551000         1.00800000
  5026 lmp_009                 1 R01      A13a2         0         0.04551000         1.00800000
  5027 lmp_009                 1 R01      A13a3         0         0.04551000         1.00800000
  5028 lmp_007                 1 R01      A13a4         0         0.00531000        12.01000000
  5029 lmp_009                 1 R01      A13a5         0         0.03971000         1.00800000
  5030 lmp_004                 1 R01      A13a6         0         0.05571000        12.01000000
  5031 lmp_009                 1 R01      A13a7         0         0.01041000         1.00800000
  5032 lmp_004                 1 R01      A13a8         0        -0.21059000        12.01000000
  5033 lmp_009                 1 R01      A13a9         0         0.05311000         1.00800000
  5034 lmp_009                 1 R01      A13aa         0         0.05311000         1.00800000
  5035 lmp_005                 1 R01      A13ab         0        -0.04569000        12.01000000
  5036 lmp_005                 1 R01      A13ac         0        -0.20379000        12.01000000
  5037 lmp_008                 1 R01      A13ad         0         0.15591000         1.00800000
  5038 lmp_003                 1 R01      A13ae         0        -0.10048000        12.01000000
  5039 lmp_009                 1 R01      A13af         0         0.02361000         1.00800000
  5040 lmp_009                 1 R01      A13b0         0         0.02361000         1.00800000
  5041 lmp_009                 1 R01      A13b1         0         0.02361000         1.00800000
  5042 lmp_004                 1 R01      A13b2         0         0.19001000        12.01000000
  5043 lmp_003                 1 R01      A13b3         0        -0.17889000        12.01000000
  5044 lmp_009                 1 R01      A13b4         0         0.04121000         1.00800000
  5045 lmp_009                 1 R01      A13b5         0         0.04121000         1.00800000
  5046 lmp_009                 1 R01      A13b6         0         0.04121000         1.00800000
  5047 lmp_005                 1 R01      A13b7         0         0.00401000        12.01000000
  5048 lmp_006                 1 R01      A13b8         0         0.00111000        12.01000000
  5049 lmp_005                 1 R01      A13b9         0        -0.18989000        12.01000000
  5050 lmp_008                 1 R01      A13ba         0         0.14431000         1.00800000
  5051 lmp_005                 1 R01      A13bb         0        -0.04879000        12.01000000
  5052 lmp_007                 1 R01      A13bc         0         0.03141000        12.01000000
  5053 lmp_009                 1 R01      A13bd         0         0.03521000         1.00800000
  5054 lmp_007                 1 R01      A13be         0         0.01591000        12.01000000
  5055 lmp_009                 1 R01      A13bf         0         0.03721000         1.00800000
  5056 lmp_004                 1 R01      A13c0         0         0.02141000        12.01000000
  5057 lmp_009                 1 R01      A13c1         0         0.01911000         1.00800000
  5058 lmp_007                 1 R01      A13c2         0         0.02241000        12.01000000
  5059 lmp_009                 1 R01      A13c3         0         0.03781000         1.00800000
  5060 lmp_007                 1 R01      A13c4         0         0.01411000        12.01000000
  5061 lmp_009                 1 R01      A13c5         0         0.03861000         1.00800000
  5062 lmp_004                 1 R01      A13c6         0         0.01111000        12.01000000
  5063 lmp_009                 1 R01      A13c7         0         0.02341000         1.00800000
  5064 lmp_004                 1 R01      A13c8         0        -0.10289000        12.01000000
  5065 lmp_009                 1 R01      A13c9         0         0.04701000         1.00800000
  5066 lmp_009                 1 R01      A13ca         0         0.04701000         1.00800000
  5067 lmp_005                 1 R01      A13cb         0        -0.03099000        12.01000000
  5068 lmp_005                 1 R01      A13cc         0        -0.25069000        12.01000000
  5069 lmp_008                 1 R01      A13cd         0         0.17281000         1.00800000
  5070 lmp_006                 1 R01      A13ce         0         0.02131000        12.01000000
  5071 lmp_005                 1 R01      A13cf         0         0.02031000        12.01000000
  5072 lmp_005                 1 R01      A13d0         0        -0.24969000        12.01000000
  5073 lmp_008                 1 R01      A13d1         0         0.17861000         1.00800000
  5074 lmp_005                 1 R01      A13d2         0        -0.03239000        12.01000000
  5075 lmp_007                 1 R01      A13d3         0         0.03221000        12.01000000
  5076 lmp_009                 1 R01      A13d4         0         0.02561000         1.00800000
  5077 lmp_007                 1 R01      A13d5         0         0.02991000        12.01000000
  5078 lmp_009                 1 R01      A13d6         0         0.02761000         1.00800000
  5079 lmp_004                 1 R01      A13d7         0         0.05471000        12.01000000
  5080 lmp_009                 1 R01      A13d8         0         0.00921000         1.00800000
  5081 lmp_007                 1 R01      A13d9         0         0.00911000        12.01000000
  5082 lmp_009                 1 R01      A13da         0         0.03851000         1.00800000
  5083 lmp_005                 1 R01      A13db         0        -0.12349000        12.01000000
  5084 lmp_005                 1 R01      A13dc         0        -0.12549000        12.01000000
  5085 lmp_005                 1 R01      A13dd         0         0.03581000        12.01000000
  5086 lmp_003                 1 R01      A13de         0        -0.11109000        12.01000000
  5087 lmp_009                 1 R01      A13df         0         0.04331000         1.00800000
  5088 lmp_009                 1 R01      A13e0         0         0.04331000         1.00800000
  5089 lmp_009                 1 R01      A13e1         0         0.04331000         1.00800000
  5090 lmp_005                 1 R01      A13e2         0        -0.08649000        12.01000000
  5091 lmp_005                 1 R01      A13e3         0        -0.09149000        12.01000000
  5092 lmp_005                 1 R01      A13e4         0         0.05181000        12.01000000
  5093 lmp_003                 1 R01      A13e5         0        -0.10009000        12.01000000
  5094 lmp_009                 1 R01      A13e6         0         0.04551000         1.00800000
  5095 lmp_009                 1 R01      A13e7         0         0.04551000         1.00800000
  5096 lmp_009                 1 R01      A13e8         0         0.04551000         1.00800000
  5097 lmp_007                 1 R01      A13e9         0         0.00531000        12.01000000
  5098 lmp_009                 1 R01      A13ea         0         0.03971000         1.00800000
  5099 lmp_004                 1 R01      A13eb         0         0.05571000        12.01000000
  5100 lmp_009                 1 R01      A13ec         0         0.01041000         1.00800000
  5101 lmp_004                 1 R01      A13ed         0        -0.21059000        12.01000000
  5102 lmp_009                 1 R01      A13ee         0         0.05311000         1.00800000
  5103 lmp_009                 1 R01      A13ef         0         0.05311000         1.00800000
  5104 lmp_005                 1 R01      A13f0         0        -0.04569000        12.01000000
  5105 lmp_005                 1 R01      A13f1         0        -0.20379000        12.01000000
  5106 lmp_008                 1 R01      A13f2         0         0.15591000         1.00800000
  5107 lmp_003                 1 R01      A13f3         0        -0.10048000        12.01000000
  5108 lmp_009                 1 R01      A13f4         0         0.02361000         1.00800000
  5109 lmp_009                 1 R01      A13f5         0         0.02361000         1.00800000
  5110 lmp_009                 1 R01      A13f6         0         0.02361000         1.00800000
  5111 lmp_004                 1 R01      A13f7         0         0.19001000        12.01000000
  5112 lmp_003                 1 R01      A13f8         0        -0.17889000        12.01000000
  5113 lmp_009                 1 R01      A13f9         0         0.04121000         1.00800000
  5114 lmp_009                 1 R01      A13fa         0         0.04121000         1.00800000
  5115 lmp_009                 1 R01      A13fb         0         0.04121000         1.00800000
  5116 lmp_005                 1 R01      A13fc         0         0.00401000        12.01000000
  5117 lmp_006                 1 R01      A13fd         0         0.00111000        12.01000000
  5118 lmp_005                 1 R01      A13fe         0        -0.18989000        12.01000000
  5119 lmp_008                 1 R01      A13ff         0         0.14431000         1.00800000
  5120 lmp_005                 1 R01      A1400         0        -0.04879000        12.01000000
  5121 lmp_007                 1 R01      A1401         0         0.03141000        12.01000000
  5122 lmp_009                 1 R01      A1402         0         0.03521000         1.00800000
  5123 lmp_007                 1 R01      A1403         0         0.01591000        12.01000000
  5124 lmp_009                 1 R01      A1404         0         0.03721000         1.00800000
  5125 lmp_004                 1 R01      A1405         0         0.02141000        12.01000000
  5126 lmp_009                 1 R01      A1406         0         0.01911000         1.00800000
  5127 lmp_007                 1 R01      A1407         0         0.02241000        12.01000000
  5128 lmp_009                 1 R01      A1408         0         0.03781000         1.00800000
  5129 lmp_007                 1 R01      A1409         0         0.01411000        12.01000000
  5130 lmp_009                 1 R01      A140a         0         0.03861000         1.00800000
  5131 lmp_004                 1 R01      A140b         0         0.01111000        12.01000000
  5132 lmp_009                 1 R01      A140c         0         0.02341000         1.00800000
  5133 lmp_004                 1 R01      A140d         0        -0.10289000        12.01000000
  5134 lmp_009                 1 R01      A140e         0         0.04701000         1.00800000
  5135 lmp_009                 1 R01      A140f         0         0.04701000         1.00800000
  5136 lmp_005                 1 R01      A1410         0        -0.03099000        12.01000000
  5137 lmp_005                 1 R01      A1411         0        -0.25069000        12.01000000
  5138 lmp_008                 1 R01      A1412         0         0.17281000         1.00800000
  5139 lmp_006                 1 R01      A1413         0         0.02131000        12.01000000
  5140 lmp_005                 1 R01      A1414         0         0.02031000        12.01000000
  5141 lmp_005                 1 R01      A1415         0        -0.24969000        12.01000000
  5142 lmp_008                 1 R01      A1416         0         0.17861000         1.00800000
  5143 lmp_005                 1 R01      A1417         0        -0.03239000        12.01000000
  5144 lmp_007                 1 R01      A1418         0         0.03221000        12.01000000
  5145 lmp_009                 1 R01      A1419         0         0.02561000         1.00800000
  5146 lmp_007                 1 R01      A141a         0         0.02991000        12.01000000
  5147 lmp_009                 1 R01      A141b         0         0.02761000         1.00800000
  5148 lmp_004                 1 R01      A141c         0         0.05471000        12.01000000
  5149 lmp_009                 1 R01      A141d         0         0.00921000         1.00800000
  5150 lmp_007                 1 R01      A141e         0         0.00911000        12.01000000
  5151 lmp_009                 1 R01      A141f         0         0.03851000         1.00800000
  5152 lmp_005                 1 R01      A1420         0        -0.12349000        12.01000000
  5153 lmp_005                 1 R01      A1421         0        -0.12549000        12.01000000
  5154 lmp_005                 1 R01      A1422         0         0.03581000        12.01000000
  5155 lmp_003                 1 R01      A1423         0        -0.11109000        12.01000000
  5156 lmp_009                 1 R01      A1424         0         0.04331000         1.00800000
  5157 lmp_009                 1 R01      A1425         0         0.04331000         1.00800000
  5158 lmp_009                 1 R01      A1426         0         0.04331000         1.00800000
  5159 lmp_005                 1 R01      A1427         0        -0.08649000        12.01000000
  5160 lmp_005                 1 R01      A1428         0        -0.09149000        12.01000000
  5161 lmp_005                 1 R01      A1429         0         0.05181000        12.01000000
  5162 lmp_003                 1 R01      A142a         0        -0.10009000        12.01000000
  5163 lmp_009                 1 R01      A142b         0         0.04551000         1.00800000
  5164 lmp_009                 1 R01      A142c         0         0.04551000         1.00800000
  5165 lmp_009                 1 R01      A142d         0         0.04551000         1.00800000
  5166 lmp_007                 1 R01      A142e         0         0.00531000        12.01000000
  5167 lmp_009                 1 R01      A142f         0         0.03971000         1.00800000
  5168 lmp_004                 1 R01      A1430         0         0.05571000        12.01000000
  5169 lmp_009                 1 R01      A1431         0         0.01041000         1.00800000
  5170 lmp_004                 1 R01      A1432         0        -0.21059000        12.01000000
  5171 lmp_009                 1 R01      A1433         0         0.05311000         1.00800000
  5172 lmp_009                 1 R01      A1434         0         0.05311000         1.00800000
  5173 lmp_005                 1 R01      A1435         0        -0.04569000        12.01000000
  5174 lmp_005                 1 R01      A1436         0        -0.20379000        12.01000000
  5175 lmp_008                 1 R01      A1437         0         0.15591000         1.00800000
  5176 lmp_003                 1 R01      A1438         0        -0.10048000        12.01000000
  5177 lmp_009                 1 R01      A1439         0         0.02361000         1.00800000
  5178 lmp_009                 1 R01      A143a         0         0.02361000         1.00800000
  5179 lmp_009                 1 R01      A143b         0         0.02361000         1.00800000
  5180 lmp_004                 1 R01      A143c         0         0.19001000        12.01000000
  5181 lmp_003                 1 R01      A143d         0        -0.17889000        12.01000000
  5182 lmp_009                 1 R01      A143e         0         0.04121000         1.00800000
  5183 lmp_009                 1 R01      A143f         0         0.04121000         1.00800000
  5184 lmp_009                 1 R01      A1440         0         0.04121000         1.00800000
  5185 lmp_005                 1 R01      A1441         0         0.00401000        12.01000000
  5186 lmp_006                 1 R01      A1442         0         0.00111000        12.01000000
  5187 lmp_005                 1 R01      A1443         0        -0.18989000        12.01000000
  5188 lmp_008                 1 R01      A1444         0         0.14431000         1.00800000
  5189 lmp_005                 1 R01      A1445         0        -0.04879000        12.01000000
  5190 lmp_007                 1 R01      A1446         0         0.03141000        12.01000000
  5191 lmp_009                 1 R01      A1447         0         0.03521000         1.00800000
  5192 lmp_007                 1 R01      A1448         0         0.01591000        12.01000000
  5193 lmp_009                 1 R01      A1449         0         0.03721000         1.00800000
  5194 lmp_004                 1 R01      A144a         0         0.02141000        12.01000000
  5195 lmp_009                 1 R01      A144b         0         0.01911000         1.00800000
  5196 lmp_007                 1 R01      A144c         0         0.02241000        12.01000000
  5197 lmp_009                 1 R01      A144d         0         0.03781000         1.00800000
  5198 lmp_007                 1 R01      A144e         0         0.01411000        12.01000000
  5199 lmp_009                 1 R01      A144f         0         0.03861000         1.00800000
  5200 lmp_004                 1 R01      A1450         0         0.01111000        12.01000000
  5201 lmp_009                 1 R01      A1451         0         0.02341000         1.00800000
  5202 lmp_004                 1 R01      A1452         0        -0.10289000        12.01000000
  5203 lmp_009                 1 R01      A1453         0         0.04701000         1.00800000
  5204 lmp_009                 1 R01      A1454         0         0.04701000         1.00800000
  5205 lmp_005                 1 R01      A1455         0        -0.03099000        12.01000000
  5206 lmp_005                 1 R01      A1456         0        -0.25069000        12.01000000
  5207 lmp_008                 1 R01      A1457         0         0.17281000         1.00800000
  5208 lmp_006                 1 R01      A1458         0         0.02131000        12.01000000
  5209 lmp_005                 1 R01      A1459         0         0.02031000        12.01000000
  5210 lmp_005                 1 R01      A145a         0        -0.24969000        12.01000000
  5211 lmp_008                 1 R01      A145b         0         0.17861000         1.00800000
  5212 lmp_005                 1 R01      A145c         0        -0.03239000        12.01000000
  5213 lmp_007                 1 R01      A145d         0         0.03221000        12.01000000
  5214 lmp_009                 1 R01      A145e         0         0.02561000         1.00800000
  5215 lmp_007                 1 R01      A145f         0         0.02991000        12.01000000
  5216 lmp_009                 1 R01      A1460         0         0.02761000         1.00800000
  5217 lmp_004                 1 R01      A1461         0         0.05471000        12.01000000
  5218 lmp_009                 1 R01      A1462         0         0.00921000         1.00800000
  5219 lmp_007                 1 R01      A1463         0         0.00911000        12.01000000
  5220 lmp_009                 1 R01      A1464         0         0.03851000         1.00800000
  5221 lmp_005                 1 R01      A1465         0        -0.12349000        12.01000000
  5222 lmp_005                 1 R01      A1466         0        -0.12549000        12.01000000
  5223 lmp_005                 1 R01      A1467         0         0.03581000        12.01000000
  5224 lmp_003                 1 R01      A1468         0        -0.11109000        12.01000000
  5225 lmp_009                 1 R01      A1469         0         0.04331000         1.00800000
  5226 lmp_009                 1 R01      A146a         0         0.04331000         1.00800000
  5227 lmp_009                 1 R01      A146b         0         0.04331000         1.00800000
  5228 lmp_005                 1 R01      A146c         0        -0.08649000        12.01000000
  5229 lmp_005                 1 R01      A146d         0        -0.09149000        12.01000000
  5230 lmp_005                 1 R01      A146e         0         0.05181000        12.01000000
  5231 lmp_003                 1 R01      A146f         0        -0.10009000        12.01000000
  5232 lmp_009                 1 R01      A1470         0         0.04551000         1.00800000
  5233 lmp_009                 1 R01      A1471         0         0.04551000         1.00800000
  5234 lmp_009                 1 R01      A1472         0         0.04551000         1.00800000
  5235 lmp_007                 1 R01      A1473         0         0.00531000        12.01000000
  5236 lmp_009                 1 R01      A1474         0         0.03971000         1.00800000
  5237 lmp_004                 1 R01      A1475         0         0.05571000        12.01000000
  5238 lmp_009                 1 R01      A1476         0         0.01041000         1.00800000
  5239 lmp_004                 1 R01      A1477         0        -0.21059000        12.01000000
  5240 lmp_009                 1 R01      A1478         0         0.05311000         1.00800000
  5241 lmp_009                 1 R01      A1479         0         0.05311000         1.00800000
  5242 lmp_005                 1 R01      A147a         0        -0.04569000        12.01000000
  5243 lmp_005                 1 R01      A147b         0        -0.20379000        12.01000000
  5244 lmp_008                 1 R01      A147c         0         0.15591000         1.00800000
  5245 lmp_003                 1 R01      A147d         0        -0.10048000        12.01000000
  5246 lmp_009                 1 R01      A147e         0         0.02361000         1.00800000
  5247 lmp_009                 1 R01      A147f         0         0.02361000         1.00800000
  5248 lmp_009                 1 R01      A1480         0         0.02361000         1.00800000
  5249 lmp_004                 1 R01      A1481         0         0.19001000        12.01000000
  5250 lmp_003                 1 R01      A1482         0        -0.17889000        12.01000000
  5251 lmp_009                 1 R01      A1483         0         0.04121000         1.00800000
  5252 lmp_009                 1 R01      A1484         0         0.04121000         1.00800000
  5253 lmp_009                 1 R01      A1485         0         0.04121000         1.00800000
  5254 lmp_005                 1 R01      A1486         0         0.00401000        12.01000000
  5255 lmp_006                 1 R01      A1487         0         0.00111000        12.01000000
  5256 lmp_005                 1 R01      A1488         0        -0.18989000        12.01000000
  5257 lmp_008                 1 R01      A1489         0         0.14431000         1.00800000
  5258 lmp_005                 1 R01      A148a         0        -0.04879000        12.01000000
  5259 lmp_007                 1 R01      A148b         0         0.03141000        12.01000000
  5260 lmp_009                 1 R01      A148c         0         0.03521000         1.00800000
  5261 lmp_007                 1 R01      A148d         0         0.01591000        12.01000000
  5262 lmp_009                 1 R01      A148e         0         0.03721000         1.00800000
  5263 lmp_004                 1 R01      A148f         0         0.02141000        12.01000000
  5264 lmp_009                 1 R01      A1490         0         0.01911000         1.00800000
  5265 lmp_001                 1 R01      A1491         0         0.02241000        12.01000000
  5266 lmp_009                 1 R01      A1492         0         0.03781000         1.00800000
  5267 lmp_001                 1 R01      A1493         0         0.01411000        12.01000000
  5268 lmp_009                 1 R01      A1494         0         0.03861000         1.00800000
  5269 lmp_004                 1 R01      A1495         0         0.01111000        12.01000000
  5270 lmp_009                 1 R01      A1496         0         0.02341000         1.00800000
  5271 lmp_004                 1 R01      A1497         0        -0.10289000        12.01000000
  5272 lmp_009                 1 R01      A1498         0         0.04701000         1.00800000
  5273 lmp_009                 1 R01      A1499         0         0.04701000         1.00800000
  5274 lmp_005                 1 R01      A149a         0        -0.03099000        12.01000000
  5275 lmp_005                 1 R01      A149b         0        -0.25069000        12.01000000
  5276 lmp_008                 1 R01      A149c         0         0.17281000         1.00800000
  5277 lmp_006                 1 R01      A149d         0         0.02131000        12.01000000
  5278 lmp_005                 1 R01      A149e         0         0.02031000        12.01000000
  5279 lmp_005                 1 R01      A149f         0        -0.24969000        12.01000000
  5280 lmp_008                 1 R01      A14a0         0         0.17861000         1.00800000
  5281 lmp_005                 1 R01      A14a1         0        -0.03239000        12.01000000
  5282 lmp_007                 1 R01      A14a2         0         0.03221000        12.01000000
  5283 lmp_009                 1 R01      A14a3         0         0.02561000         1.00800000
  5284 lmp_007                 1 R01      A14a4         0         0.02991000        12.01000000
  5285 lmp_009                 1 R01      A14a5         0         0.02761000         1.00800000
  5286 lmp_004                 1 R01      A14a6         0         0.05471000        12.01000000
  5287 lmp_009                 1 R01      A14a7         0         0.00921000         1.00800000
  5288 lmp_007                 1 R01      A14a8         0         0.00911000        12.01000000
  5289 lmp_009                 1 R01      A14a9         0         0.03851000         1.00800000
  5290 lmp_005                 1 R01      A14aa         0        -0.12349000        12.01000000
  5291 lmp_005                 1 R01      A14ab         0        -0.12549000        12.01000000
  5292 lmp_005                 1 R01      A14ac         0         0.03581000        12.01000000
  5293 lmp_003                 1 R01      A14ad         0        -0.11109000        12.01000000
  5294 lmp_009                 1 R01      A14ae         0         0.04331000         1.00800000
  5295 lmp_009                 1 R01      A14af         0         0.04331000         1.00800000
  5296 lmp_009                 1 R01      A14b0         0         0.04331000         1.00800000
  5297 lmp_005                 1 R01      A14b1         0        -0.08649000        12.01000000
  5298 lmp_005                 1 R01      A14b2         0        -0.09149000        12.01000000
  5299 lmp_005                 1 R01      A14b3         0         0.05181000        12.01000000
  5300 lmp_003                 1 R01      A14b4         0        -0.10009000        12.01000000
  5301 lmp_009                 1 R01      A14b5         0         0.04551000         1.00800000
  5302 lmp_009                 1 R01      A14b6         0         0.04551000         1.00800000
  5303 lmp_009                 1 R01      A14b7         0         0.04551000         1.00800000
  5304 lmp_007                 1 R01      A14b8         0         0.00531000        12.01000000
  5305 lmp_009                 1 R01      A14b9         0         0.03971000         1.00800000
  5306 lmp_004                 1 R01      A14ba         0         0.05571000        12.01000000
  5307 lmp_009                 1 R01      A14bb         0         0.01041000         1.00800000
  5308 lmp_004                 1 R01      A14bc         0        -0.21059000        12.01000000
  5309 lmp_009                 1 R01      A14bd         0         0.05311000         1.00800000
  5310 lmp_009                 1 R01      A14be         0         0.05311000         1.00800000
  5311 lmp_005                 1 R01      A14bf         0        -0.04569000        12.01000000
  5312 lmp_005                 1 R01      A14c0         0        -0.20379000        12.01000000
  5313 lmp_008                 1 R01      A14c1         0         0.15591000         1.00800000
  5314 lmp_003                 1 R01      A14c2         0        -0.10048000        12.01000000
  5315 lmp_009                 1 R01      A14c3         0         0.02361000         1.00800000
  5316 lmp_009                 1 R01      A14c4         0         0.02361000         1.00800000
  5317 lmp_009                 1 R01      A14c5         0         0.02361000         1.00800000
  5318 lmp_004                 1 R01      A14c6         0         0.19001000        12.01000000
  5319 lmp_003                 1 R01      A14c7         0        -0.17889000        12.01000000
  5320 lmp_009                 1 R01      A14c8         0         0.04121000         1.00800000
  5321 lmp_009                 1 R01      A14c9         0         0.04121000         1.00800000
  5322 lmp_009                 1 R01      A14ca         0         0.04121000         1.00800000
  5323 lmp_005                 1 R01      A14cb         0         0.00401000        12.01000000
  5324 lmp_006                 1 R01      A14cc         0         0.00111000        12.01000000
  5325 lmp_005                 1 R01      A14cd         0        -0.18989000        12.01000000
  5326 lmp_008                 1 R01      A14ce         0         0.14431000         1.00800000
  5327 lmp_005                 1 R01      A14cf         0        -0.04879000        12.01000000
  5328 lmp_007                 1 R01      A14d0         0         0.03141000        12.01000000
  5329 lmp_009                 1 R01      A14d1         0         0.03521000         1.00800000
  5330 lmp_007                 1 R01      A14d2         0         0.01591000        12.01000000
  5331 lmp_009                 1 R01      A14d3         0         0.03721000         1.00800000
  5332 lmp_004                 1 R01      A14d4         0         0.02141000        12.01000000
  5333 lmp_009                 1 R01      A14d5         0         0.01911000         1.00800000
  5334 lmp_007                 1 R01      A14d6         0         0.02241000        12.01000000
  5335 lmp_009                 1 R01      A14d7         0         0.03781000         1.00800000
  5336 lmp_007                 1 R01      A14d8         0         0.01411000        12.01000000
  5337 lmp_009                 1 R01      A14d9         0         0.03861000         1.00800000
  5338 lmp_004                 1 R01      A14da         0         0.01111000        12.01000000
  5339 lmp_009                 1 R01      A14db         0         0.02341000         1.00800000
  5340 lmp_004                 1 R01      A14dc         0        -0.10289000        12.01000000
  5341 lmp_009                 1 R01      A14dd         0         0.04701000         1.00800000
  5342 lmp_009                 1 R01      A14de         0         0.04701000         1.00800000
  5343 lmp_005                 1 R01      A14df         0        -0.03099000        12.01000000
  5344 lmp_005                 1 R01      A14e0         0        -0.25069000        12.01000000
  5345 lmp_008                 1 R01      A14e1         0         0.17281000         1.00800000
  5346 lmp_006                 1 R01      A14e2         0         0.02131000        12.01000000
  5347 lmp_005                 1 R01      A14e3         0         0.02031000        12.01000000
  5348 lmp_005                 1 R01      A14e4         0        -0.24969000        12.01000000
  5349 lmp_008                 1 R01      A14e5         0         0.17861000         1.00800000
  5350 lmp_005                 1 R01      A14e6         0        -0.03239000        12.01000000
  5351 lmp_007                 1 R01      A14e7         0         0.03221000        12.01000000
  5352 lmp_009                 1 R01      A14e8         0         0.02561000         1.00800000
  5353 lmp_007                 1 R01      A14e9         0         0.02991000        12.01000000
  5354 lmp_009                 1 R01      A14ea         0         0.02761000         1.00800000
  5355 lmp_004                 1 R01      A14eb         0         0.05471000        12.01000000
  5356 lmp_009                 1 R01      A14ec         0         0.00921000         1.00800000
  5357 lmp_007                 1 R01      A14ed         0         0.00911000        12.01000000
  5358 lmp_009                 1 R01      A14ee         0         0.03851000         1.00800000
  5359 lmp_005                 1 R01      A14ef         0        -0.12349000        12.01000000
  5360 lmp_005                 1 R01      A14f0         0        -0.12549000        12.01000000
  5361 lmp_005                 1 R01      A14f1         0         0.03581000        12.01000000
  5362 lmp_003                 1 R01      A14f2         0        -0.11109000        12.01000000
  5363 lmp_009                 1 R01      A14f3         0         0.04331000         1.00800000
  5364 lmp_009                 1 R01      A14f4         0         0.04331000         1.00800000
  5365 lmp_009                 1 R01      A14f5         0         0.04331000         1.00800000
  5366 lmp_005                 1 R01      A14f6         0        -0.08649000        12.01000000
  5367 lmp_005                 1 R01      A14f7         0        -0.09149000        12.01000000
  5368 lmp_005                 1 R01      A14f8         0         0.05181000        12.01000000
  5369 lmp_003                 1 R01      A14f9         0        -0.10009000        12.01000000
  5370 lmp_009                 1 R01      A14fa         0         0.04551000         1.00800000
  5371 lmp_009                 1 R01      A14fb         0         0.04551000         1.00800000
  5372 lmp_009                 1 R01      A14fc         0         0.04551000         1.00800000
  5373 lmp_007                 1 R01      A14fd         0         0.00531000        12.01000000
  5374 lmp_009                 1 R01      A14fe         0         0.03971000         1.00800000
  5375 lmp_004                 1 R01      A14ff         0         0.05571000        12.01000000
  5376 lmp_009                 1 R01      A1500         0         0.01041000         1.00800000
  5377 lmp_004                 1 R01      A1501         0        -0.21059000        12.01000000
  5378 lmp_009                 1 R01      A1502         0         0.05311000         1.00800000
  5379 lmp_009                 1 R01      A1503         0         0.05311000         1.00800000
  5380 lmp_005                 1 R01      A1504         0        -0.04569000        12.01000000
  5381 lmp_005                 1 R01      A1505         0        -0.20379000        12.01000000
  5382 lmp_008                 1 R01      A1506         0         0.15591000         1.00800000
  5383 lmp_003                 1 R01      A1507         0        -0.10048000        12.01000000
  5384 lmp_009                 1 R01      A1508         0         0.02361000         1.00800000
  5385 lmp_009                 1 R01      A1509         0         0.02361000         1.00800000
  5386 lmp_009                 1 R01      A150a         0         0.02361000         1.00800000
  5387 lmp_004                 1 R01      A150b         0         0.19001000        12.01000000
  5388 lmp_003                 1 R01      A150c         0        -0.17889000        12.01000000
  5389 lmp_009                 1 R01      A150d         0         0.04121000         1.00800000
  5390 lmp_009                 1 R01      A150e         0         0.04121000         1.00800000
  5391 lmp_009                 1 R01      A150f         0         0.04121000         1.00800000
  5392 lmp_005                 1 R01      A1510         0         0.00401000        12.01000000
  5393 lmp_006                 1 R01      A1511         0         0.00111000        12.01000000
  5394 lmp_005                 1 R01      A1512         0        -0.18989000        12.01000000
  5395 lmp_008                 1 R01      A1513         0         0.14431000         1.00800000
  5396 lmp_005                 1 R01      A1514         0        -0.04879000        12.01000000
  5397 lmp_007                 1 R01      A1515         0         0.03141000        12.01000000
  5398 lmp_009                 1 R01      A1516         0         0.03521000         1.00800000
  5399 lmp_007                 1 R01      A1517         0         0.01591000        12.01000000
  5400 lmp_009                 1 R01      A1518         0         0.03721000         1.00800000
  5401 lmp_004                 1 R01      A1519         0         0.02141000        12.01000000
  5402 lmp_009                 1 R01      A151a         0         0.01911000         1.00800000
  5403 lmp_007                 1 R01      A151b         0         0.02241000        12.01000000
  5404 lmp_009                 1 R01      A151c         0         0.03781000         1.00800000
  5405 lmp_007                 1 R01      A151d         0         0.01411000        12.01000000
  5406 lmp_009                 1 R01      A151e         0         0.03861000         1.00800000
  5407 lmp_004                 1 R01      A151f         0         0.01111000        12.01000000
  5408 lmp_009                 1 R01      A1520         0         0.02341000         1.00800000
  5409 lmp_004                 1 R01      A1521         0        -0.10289000        12.01000000
  5410 lmp_009                 1 R01      A1522         0         0.04701000         1.00800000
  5411 lmp_009                 1 R01      A1523         0         0.04701000         1.00800000
  5412 lmp_005                 1 R01      A1524         0        -0.03099000        12.01000000
  5413 lmp_005                 1 R01      A1525         0        -0.25069000        12.01000000
  5414 lmp_008                 1 R01      A1526         0         0.17281000         1.00800000
  5415 lmp_006                 1 R01      A1527         0         0.02131000        12.01000000
  5416 lmp_005                 1 R01      A1528         0         0.02031000        12.01000000
  5417 lmp_005                 1 R01      A1529         0        -0.24969000        12.01000000
  5418 lmp_008                 1 R01      A152a         0         0.17861000         1.00800000
  5419 lmp_005                 1 R01      A152b         0        -0.03239000        12.01000000
  5420 lmp_007                 1 R01      A152c         0         0.03221000        12.01000000
  5421 lmp_009                 1 R01      A152d         0         0.02561000         1.00800000
  5422 lmp_007                 1 R01      A152e         0         0.02991000        12.01000000
  5423 lmp_009                 1 R01      A152f         0         0.02761000         1.00800000
  5424 lmp_004                 1 R01      A1530         0         0.05471000        12.01000000
  5425 lmp_009                 1 R01      A1531         0         0.00921000         1.00800000
  5426 lmp_007                 1 R01      A1532         0         0.00911000        12.01000000
  5427 lmp_009                 1 R01      A1533         0         0.03851000         1.00800000
  5428 lmp_005                 1 R01      A1534         0        -0.12349000        12.01000000
  5429 lmp_005                 1 R01      A1535         0        -0.12549000        12.01000000
  5430 lmp_005                 1 R01      A1536         0         0.03581000        12.01000000
  5431 lmp_003                 1 R01      A1537         0        -0.11109000        12.01000000
  5432 lmp_009                 1 R01      A1538         0         0.04331000         1.00800000
  5433 lmp_009                 1 R01      A1539         0         0.04331000         1.00800000
  5434 lmp_009                 1 R01      A153a         0         0.04331000         1.00800000
  5435 lmp_005                 1 R01      A153b         0        -0.08649000        12.01000000
  5436 lmp_005                 1 R01      A153c         0        -0.09149000        12.01000000
  5437 lmp_005                 1 R01      A153d         0         0.05181000        12.01000000
  5438 lmp_003                 1 R01      A153e         0        -0.10009000        12.01000000
  5439 lmp_009                 1 R01      A153f         0         0.04551000         1.00800000
  5440 lmp_009                 1 R01      A1540         0         0.04551000         1.00800000
  5441 lmp_009                 1 R01      A1541         0         0.04551000         1.00800000
  5442 lmp_007                 1 R01      A1542         0         0.00531000        12.01000000
  5443 lmp_009                 1 R01      A1543         0         0.03971000         1.00800000
  5444 lmp_004                 1 R01      A1544         0         0.05571000        12.01000000
  5445 lmp_009                 1 R01      A1545         0         0.01041000         1.00800000
  5446 lmp_004                 1 R01      A1546         0        -0.21059000        12.01000000
  5447 lmp_009                 1 R01      A1547         0         0.05311000         1.00800000
  5448 lmp_009                 1 R01      A1548         0         0.05311000         1.00800000
  5449 lmp_005                 1 R01      A1549         0        -0.04569000        12.01000000
  5450 lmp_005                 1 R01      A154a         0        -0.20379000        12.01000000
  5451 lmp_008                 1 R01      A154b         0         0.15591000         1.00800000
  5452 lmp_003                 1 R01      A154c         0        -0.10048000        12.01000000
  5453 lmp_009                 1 R01      A154d         0         0.02361000         1.00800000
  5454 lmp_009                 1 R01      A154e         0         0.02361000         1.00800000
  5455 lmp_009                 1 R01      A154f         0         0.02361000         1.00800000
  5456 lmp_004                 1 R01      A1550         0         0.19001000        12.01000000
  5457 lmp_003                 1 R01      A1551         0        -0.17889000        12.01000000
  5458 lmp_009                 1 R01      A1552         0         0.04121000         1.00800000
  5459 lmp_009                 1 R01      A1553         0         0.04121000         1.00800000
  5460 lmp_009                 1 R01      A1554         0         0.04121000         1.00800000
  5461 lmp_005                 1 R01      A1555         0         0.00401000        12.01000000
  5462 lmp_006                 1 R01      A1556         0         0.00111000        12.01000000
  5463 lmp_005                 1 R01      A1557         0        -0.18989000        12.01000000
  5464 lmp_008                 1 R01      A1558         0         0.14431000         1.00800000
  5465 lmp_005                 1 R01      A1559         0        -0.04879000        12.01000000
  5466 lmp_007                 1 R01      A155a         0         0.03141000        12.01000000
  5467 lmp_009                 1 R01      A155b         0         0.03521000         1.00800000
  5468 lmp_007                 1 R01      A155c         0         0.01591000        12.01000000
  5469 lmp_009                 1 R01      A155d         0         0.03721000         1.00800000
  5470 lmp_004                 1 R01      A155e         0         0.02141000        12.01000000
  5471 lmp_009                 1 R01      A155f         0         0.01911000         1.00800000
  5472 lmp_007                 1 R01      A1560         0         0.02241000        12.01000000
  5473 lmp_009                 1 R01      A1561         0         0.03781000         1.00800000
  5474 lmp_007                 1 R01      A1562         0         0.01411000        12.01000000
  5475 lmp_009                 1 R01      A1563         0         0.03861000         1.00800000
  5476 lmp_004                 1 R01      A1564         0         0.01111000        12.01000000
  5477 lmp_009                 1 R01      A1565         0         0.02341000         1.00800000
  5478 lmp_004                 1 R01      A1566         0        -0.10289000        12.01000000
  5479 lmp_009                 1 R01      A1567         0         0.04701000         1.00800000
  5480 lmp_009                 1 R01      A1568         0         0.04701000         1.00800000
  5481 lmp_005                 1 R01      A1569         0        -0.03099000        12.01000000
  5482 lmp_005                 1 R01      A156a         0        -0.25069000        12.01000000
  5483 lmp_008                 1 R01      A156b         0         0.17281000         1.00800000
  5484 lmp_006                 1 R01      A156c         0         0.02131000        12.01000000
  5485 lmp_005                 1 R01      A156d         0         0.02031000        12.01000000
  5486 lmp_005                 1 R01      A156e         0        -0.24969000        12.01000000
  5487 lmp_008                 1 R01      A156f         0         0.17861000         1.00800000
  5488 lmp_005                 1 R01      A1570         0        -0.03239000        12.01000000
  5489 lmp_007                 1 R01      A1571         0         0.03221000        12.01000000
  5490 lmp_009                 1 R01      A1572         0         0.02561000         1.00800000
  5491 lmp_007                 1 R01      A1573         0         0.02991000        12.01000000
  5492 lmp_009                 1 R01      A1574         0         0.02761000         1.00800000
  5493 lmp_004                 1 R01      A1575         0         0.05471000        12.01000000
  5494 lmp_009                 1 R01      A1576         0         0.00921000         1.00800000
  5495 lmp_007                 1 R01      A1577         0         0.00911000        12.01000000
  5496 lmp_009                 1 R01      A1578         0         0.03851000         1.00800000
  5497 lmp_005                 1 R01      A1579         0        -0.12349000        12.01000000
  5498 lmp_005                 1 R01      A157a         0        -0.12549000        12.01000000
  5499 lmp_005                 1 R01      A157b         0         0.03581000        12.01000000
  5500 lmp_003                 1 R01      A157c         0        -0.11109000        12.01000000
  5501 lmp_009                 1 R01      A157d         0         0.04331000         1.00800000
  5502 lmp_009                 1 R01      A157e         0         0.04331000         1.00800000
  5503 lmp_009                 1 R01      A157f         0         0.04331000         1.00800000
  5504 lmp_005                 1 R01      A1580         0        -0.08649000        12.01000000
  5505 lmp_005                 1 R01      A1581         0        -0.09149000        12.01000000
  5506 lmp_005                 1 R01      A1582         0         0.05181000        12.01000000
  5507 lmp_003                 1 R01      A1583         0        -0.10009000        12.01000000
  5508 lmp_009                 1 R01      A1584         0         0.04551000         1.00800000
  5509 lmp_009                 1 R01      A1585         0         0.04551000         1.00800000
  5510 lmp_009                 1 R01      A1586         0         0.04551000         1.00800000
  5511 lmp_007                 1 R01      A1587         0         0.00531000        12.01000000
  5512 lmp_009                 1 R01      A1588         0         0.03971000         1.00800000
  5513 lmp_004                 1 R01      A1589         0         0.05571000        12.01000000
  5514 lmp_009                 1 R01      A158a         0         0.01041000         1.00800000
  5515 lmp_004                 1 R01      A158b         0        -0.21059000        12.01000000
  5516 lmp_009                 1 R01      A158c         0         0.05311000         1.00800000
  5517 lmp_009                 1 R01      A158d         0         0.05311000         1.00800000
  5518 lmp_005                 1 R01      A158e         0        -0.04569000        12.01000000
  5519 lmp_005                 1 R01      A158f         0        -0.20379000        12.01000000
  5520 lmp_008                 1 R01      A1590         0         0.15591000         1.00800000
  5521 lmp_003                 1 R01      A1591         0        -0.10048000        12.01000000
  5522 lmp_009                 1 R01      A1592         0         0.02361000         1.00800000
  5523 lmp_009                 1 R01      A1593         0         0.02361000         1.00800000
  5524 lmp_009                 1 R01      A1594         0         0.02361000         1.00800000
  5525 lmp_004                 1 R01      A1595         0         0.19001000        12.01000000
  5526 lmp_003                 1 R01      A1596         0        -0.17889000        12.01000000
  5527 lmp_009                 1 R01      A1597         0         0.04121000         1.00800000
  5528 lmp_009                 1 R01      A1598         0         0.04121000         1.00800000
  5529 lmp_009                 1 R01      A1599         0         0.04121000         1.00800000
  5530 lmp_005                 1 R01      A159a         0         0.00401000        12.01000000
  5531 lmp_006                 1 R01      A159b         0         0.00111000        12.01000000
  5532 lmp_005                 1 R01      A159c         0        -0.18989000        12.01000000
  5533 lmp_008                 1 R01      A159d         0         0.14431000         1.00800000
  5534 lmp_005                 1 R01      A159e         0        -0.04879000        12.01000000
  5535 lmp_007                 1 R01      A159f         0         0.03141000        12.01000000
  5536 lmp_009                 1 R01      A15a0         0         0.03521000         1.00800000
  5537 lmp_007                 1 R01      A15a1         0         0.01591000        12.01000000
  5538 lmp_009                 1 R01      A15a2         0         0.03721000         1.00800000
  5539 lmp_004                 1 R01      A15a3         0         0.02141000        12.01000000
  5540 lmp_009                 1 R01      A15a4         0         0.01911000         1.00800000
  5541 lmp_007                 1 R01      A15a5         0         0.02241000        12.01000000
  5542 lmp_009                 1 R01      A15a6         0         0.03781000         1.00800000
  5543 lmp_007                 1 R01      A15a7         0         0.01411000        12.01000000
  5544 lmp_009                 1 R01      A15a8         0         0.03861000         1.00800000
  5545 lmp_004                 1 R01      A15a9         0         0.01111000        12.01000000
  5546 lmp_009                 1 R01      A15aa         0         0.02341000         1.00800000
  5547 lmp_004                 1 R01      A15ab         0        -0.10289000        12.01000000
  5548 lmp_009                 1 R01      A15ac         0         0.04701000         1.00800000
  5549 lmp_009                 1 R01      A15ad         0         0.04701000         1.00800000
  5550 lmp_005                 1 R01      A15ae         0        -0.03099000        12.01000000
  5551 lmp_005                 1 R01      A15af         0        -0.25069000        12.01000000
  5552 lmp_008                 1 R01      A15b0         0         0.17281000         1.00800000
  5553 lmp_006                 1 R01      A15b1         0         0.02131000        12.01000000
  5554 lmp_005                 1 R01      A15b2         0         0.02031000        12.01000000
  5555 lmp_005                 1 R01      A15b3         0        -0.24969000        12.01000000
  5556 lmp_008                 1 R01      A15b4         0         0.17861000         1.00800000
  5557 lmp_005                 1 R01      A15b5         0        -0.03239000        12.01000000
  5558 lmp_007                 1 R01      A15b6         0         0.03221000        12.01000000
  5559 lmp_009                 1 R01      A15b7         0         0.02561000         1.00800000
  5560 lmp_007                 1 R01      A15b8         0         0.02991000        12.01000000
  5561 lmp_009                 1 R01      A15b9         0         0.02761000         1.00800000
  5562 lmp_004                 1 R01      A15ba         0         0.05471000        12.01000000
  5563 lmp_009                 1 R01      A15bb         0         0.00921000         1.00800000
  5564 lmp_007                 1 R01      A15bc         0         0.00911000        12.01000000
  5565 lmp_009                 1 R01      A15bd         0         0.03851000         1.00800000
  5566 lmp_005                 1 R01      A15be         0        -0.12349000        12.01000000
  5567 lmp_005                 1 R01      A15bf         0        -0.12549000        12.01000000
  5568 lmp_005                 1 R01      A15c0         0         0.03581000        12.01000000
  5569 lmp_003                 1 R01      A15c1         0        -0.11109000        12.01000000
  5570 lmp_009                 1 R01      A15c2         0         0.04331000         1.00800000
  5571 lmp_009                 1 R01      A15c3         0         0.04331000         1.00800000
  5572 lmp_009                 1 R01      A15c4         0         0.04331000         1.00800000
  5573 lmp_005                 1 R01      A15c5         0        -0.08649000        12.01000000
  5574 lmp_005                 1 R01      A15c6         0        -0.09149000        12.01000000
  5575 lmp_005                 1 R01      A15c7         0         0.05181000        12.01000000
  5576 lmp_003                 1 R01      A15c8         0        -0.10009000        12.01000000
  5577 lmp_009                 1 R01      A15c9         0         0.04551000         1.00800000
  5578 lmp_009                 1 R01      A15ca         0         0.04551000         1.00800000
  5579 lmp_009                 1 R01      A15cb         0         0.04551000         1.00800000
  5580 lmp_007                 1 R01      A15cc         0         0.00531000        12.01000000
  5581 lmp_009                 1 R01      A15cd         0         0.03971000         1.00800000
  5582 lmp_004                 1 R01      A15ce         0         0.05571000        12.01000000
  5583 lmp_009                 1 R01      A15cf         0         0.01041000         1.00800000
  5584 lmp_004                 1 R01      A15d0         0        -0.21059000        12.01000000
  5585 lmp_009                 1 R01      A15d1         0         0.05311000         1.00800000
  5586 lmp_009                 1 R01      A15d2         0         0.05311000         1.00800000
  5587 lmp_005                 1 R01      A15d3         0        -0.04569000        12.01000000
  5588 lmp_005                 1 R01      A15d4         0        -0.20379000        12.01000000
  5589 lmp_008                 1 R01      A15d5         0         0.15591000         1.00800000
  5590 lmp_003                 1 R01      A15d6         0        -0.10048000        12.01000000
  5591 lmp_009                 1 R01      A15d7         0         0.02361000         1.00800000
  5592 lmp_009                 1 R01      A15d8         0         0.02361000         1.00800000
  5593 lmp_009                 1 R01      A15d9         0         0.02361000         1.00800000
  5594 lmp_004                 1 R01      A15da         0         0.19001000        12.01000000
  5595 lmp_003                 1 R01      A15db         0        -0.17889000        12.01000000
  5596 lmp_009                 1 R01      A15dc         0         0.04121000         1.00800000
  5597 lmp_009                 1 R01      A15dd         0         0.04121000         1.00800000
  5598 lmp_009                 1 R01      A15de         0         0.04121000         1.00800000
  5599 lmp_005                 1 R01      A15df         0         0.00401000        12.01000000
  5600 lmp_006                 1 R01      A15e0         0         0.00111000        12.01000000
  5601 lmp_005                 1 R01      A15e1         0        -0.18989000        12.01000000
  5602 lmp_008                 1 R01      A15e2         0         0.14431000         1.00800000
  5603 lmp_005                 1 R01      A15e3         0        -0.04879000        12.01000000
  5604 lmp_007                 1 R01      A15e4         0         0.03141000        12.01000000
  5605 lmp_009                 1 R01      A15e5         0         0.03521000         1.00800000
  5606 lmp_007                 1 R01      A15e6         0         0.01591000        12.01000000
  5607 lmp_009                 1 R01      A15e7         0         0.03721000         1.00800000
  5608 lmp_004                 1 R01      A15e8         0         0.02141000        12.01000000
  5609 lmp_009                 1 R01      A15e9         0         0.01911000         1.00800000
  5610 lmp_007                 1 R01      A15ea         0         0.02241000        12.01000000
  5611 lmp_009                 1 R01      A15eb         0         0.03781000         1.00800000
  5612 lmp_007                 1 R01      A15ec         0         0.01411000        12.01000000
  5613 lmp_009                 1 R01      A15ed         0         0.03861000         1.00800000
  5614 lmp_004                 1 R01      A15ee         0         0.01111000        12.01000000
  5615 lmp_009                 1 R01      A15ef         0         0.02341000         1.00800000
  5616 lmp_004                 1 R01      A15f0         0        -0.10289000        12.01000000
  5617 lmp_009                 1 R01      A15f1         0         0.04701000         1.00800000
  5618 lmp_009                 1 R01      A15f2         0         0.04701000         1.00800000
  5619 lmp_005                 1 R01      A15f3         0        -0.03099000        12.01000000
  5620 lmp_005                 1 R01      A15f4         0        -0.25069000        12.01000000
  5621 lmp_008                 1 R01      A15f5         0         0.17281000         1.00800000
  5622 lmp_006                 1 R01      A15f6         0         0.02131000        12.01000000
  5623 lmp_005                 1 R01      A15f7         0         0.02031000        12.01000000
  5624 lmp_005                 1 R01      A15f8         0        -0.24969000        12.01000000
  5625 lmp_008                 1 R01      A15f9         0         0.17861000         1.00800000
  5626 lmp_005                 1 R01      A15fa         0        -0.03239000        12.01000000
  5627 lmp_007                 1 R01      A15fb         0         0.03221000        12.01000000
  5628 lmp_009                 1 R01      A15fc         0         0.02561000         1.00800000
  5629 lmp_007                 1 R01      A15fd         0         0.02991000        12.01000000
  5630 lmp_009                 1 R01      A15fe         0         0.02761000         1.00800000
  5631 lmp_004                 1 R01      A15ff         0         0.05471000        12.01000000
  5632 lmp_009                 1 R01      A1600         0         0.00921000         1.00800000
  5633 lmp_007                 1 R01      A1601         0         0.00911000        12.01000000
  5634 lmp_009                 1 R01      A1602         0         0.03851000         1.00800000
  5635 lmp_005                 1 R01      A1603         0        -0.12349000        12.01000000
  5636 lmp_005                 1 R01      A1604         0        -0.12549000        12.01000000
  5637 lmp_005                 1 R01      A1605         0         0.03581000        12.01000000
  5638 lmp_003                 1 R01      A1606         0        -0.11109000        12.01000000
  5639 lmp_009                 1 R01      A1607         0         0.04331000         1.00800000
  5640 lmp_009                 1 R01      A1608         0         0.04331000         1.00800000
  5641 lmp_009                 1 R01      A1609         0         0.04331000         1.00800000
  5642 lmp_005                 1 R01      A160a         0        -0.08649000        12.01000000
  5643 lmp_005                 1 R01      A160b         0        -0.09149000        12.01000000
  5644 lmp_005                 1 R01      A160c         0         0.05181000        12.01000000
  5645 lmp_003                 1 R01      A160d         0        -0.10009000        12.01000000
  5646 lmp_009                 1 R01      A160e         0         0.04551000         1.00800000
  5647 lmp_009                 1 R01      A160f         0         0.04551000         1.00800000
  5648 lmp_009                 1 R01      A1610         0         0.04551000         1.00800000
  5649 lmp_007                 1 R01      A1611         0         0.00531000        12.01000000
  5650 lmp_009                 1 R01      A1612         0         0.03971000         1.00800000
  5651 lmp_004                 1 R01      A1613         0         0.05571000        12.01000000
  5652 lmp_009                 1 R01      A1614         0         0.01041000         1.00800000
  5653 lmp_004                 1 R01      A1615         0        -0.21059000        12.01000000
  5654 lmp_009                 1 R01      A1616         0         0.05311000         1.00800000
  5655 lmp_009                 1 R01      A1617         0         0.05311000         1.00800000
  5656 lmp_005                 1 R01      A1618         0        -0.04569000        12.01000000
  5657 lmp_005                 1 R01      A1619         0        -0.20379000        12.01000000
  5658 lmp_008                 1 R01      A161a         0         0.15591000         1.00800000
  5659 lmp_003                 1 R01      A161b         0        -0.10048000        12.01000000
  5660 lmp_009                 1 R01      A161c         0         0.02361000         1.00800000
  5661 lmp_009                 1 R01      A161d         0         0.02361000         1.00800000
  5662 lmp_009                 1 R01      A161e         0         0.02361000         1.00800000
  5663 lmp_004                 1 R01      A161f         0         0.19001000        12.01000000
  5664 lmp_003                 1 R01      A1620         0        -0.17889000        12.01000000
  5665 lmp_009                 1 R01      A1621         0         0.04121000         1.00800000
  5666 lmp_009                 1 R01      A1622         0         0.04121000         1.00800000
  5667 lmp_009                 1 R01      A1623         0         0.04121000         1.00800000
  5668 lmp_005                 1 R01      A1624         0         0.00401000        12.01000000
  5669 lmp_006                 1 R01      A1625         0         0.00111000        12.01000000
  5670 lmp_005                 1 R01      A1626         0        -0.18989000        12.01000000
  5671 lmp_008                 1 R01      A1627         0         0.14431000         1.00800000
  5672 lmp_005                 1 R01      A1628         0        -0.04879000        12.01000000
  5673 lmp_007                 1 R01      A1629         0         0.03141000        12.01000000
  5674 lmp_009                 1 R01      A162a         0         0.03521000         1.00800000
  5675 lmp_007                 1 R01      A162b         0         0.01591000        12.01000000
  5676 lmp_009                 1 R01      A162c         0         0.03721000         1.00800000
  5677 lmp_004                 1 R01      A162d         0         0.02141000        12.01000000
  5678 lmp_009                 1 R01      A162e         0         0.01911000         1.00800000
  5679 lmp_007                 1 R01      A162f         0         0.02241000        12.01000000
  5680 lmp_009                 1 R01      A1630         0         0.03781000         1.00800000
  5681 lmp_007                 1 R01      A1631         0         0.01411000        12.01000000
  5682 lmp_009                 1 R01      A1632         0         0.03861000         1.00800000
  5683 lmp_004                 1 R01      A1633         0         0.01111000        12.01000000
  5684 lmp_009                 1 R01      A1634         0         0.02341000         1.00800000
  5685 lmp_004                 1 R01      A1635         0        -0.10289000        12.01000000
  5686 lmp_009                 1 R01      A1636         0         0.04701000         1.00800000
  5687 lmp_009                 1 R01      A1637         0         0.04701000         1.00800000
  5688 lmp_005                 1 R01      A1638         0        -0.03099000        12.01000000
  5689 lmp_005                 1 R01      A1639         0        -0.25069000        12.01000000
  5690 lmp_008                 1 R01      A163a         0         0.17281000         1.00800000
  5691 lmp_006                 1 R01      A163b         0         0.02131000        12.01000000
  5692 lmp_005                 1 R01      A163c         0         0.02031000        12.01000000
  5693 lmp_005                 1 R01      A163d         0        -0.24969000        12.01000000
  5694 lmp_008                 1 R01      A163e         0         0.17861000         1.00800000
  5695 lmp_005                 1 R01      A163f         0        -0.03239000        12.01000000
  5696 lmp_007                 1 R01      A1640         0         0.03221000        12.01000000
  5697 lmp_009                 1 R01      A1641         0         0.02561000         1.00800000
  5698 lmp_007                 1 R01      A1642         0         0.02991000        12.01000000
  5699 lmp_009                 1 R01      A1643         0         0.02761000         1.00800000
  5700 lmp_004                 1 R01      A1644         0         0.05471000        12.01000000
  5701 lmp_009                 1 R01      A1645         0         0.00921000         1.00800000
  5702 lmp_007                 1 R01      A1646         0         0.00911000        12.01000000
  5703 lmp_009                 1 R01      A1647         0         0.03851000         1.00800000
  5704 lmp_005                 1 R01      A1648         0        -0.12349000        12.01000000
  5705 lmp_005                 1 R01      A1649         0        -0.12549000        12.01000000
  5706 lmp_005                 1 R01      A164a         0         0.03581000        12.01000000
  5707 lmp_003                 1 R01      A164b         0        -0.11109000        12.01000000
  5708 lmp_009                 1 R01      A164c         0         0.04331000         1.00800000
  5709 lmp_009                 1 R01      A164d         0         0.04331000         1.00800000
  5710 lmp_009                 1 R01      A164e         0         0.04331000         1.00800000
  5711 lmp_005                 1 R01      A164f         0        -0.08649000        12.01000000
  5712 lmp_005                 1 R01      A1650         0        -0.09149000        12.01000000
  5713 lmp_005                 1 R01      A1651         0         0.05181000        12.01000000
  5714 lmp_003                 1 R01      A1652         0        -0.10009000        12.01000000
  5715 lmp_009                 1 R01      A1653         0         0.04551000         1.00800000
  5716 lmp_009                 1 R01      A1654         0         0.04551000         1.00800000
  5717 lmp_009                 1 R01      A1655         0         0.04551000         1.00800000
  5718 lmp_007                 1 R01      A1656         0         0.00531000        12.01000000
  5719 lmp_009                 1 R01      A1657         0         0.03971000         1.00800000
  5720 lmp_004                 1 R01      A1658         0         0.05571000        12.01000000
  5721 lmp_009                 1 R01      A1659         0         0.01041000         1.00800000
  5722 lmp_004                 1 R01      A165a         0        -0.21059000        12.01000000
  5723 lmp_009                 1 R01      A165b         0         0.05311000         1.00800000
  5724 lmp_009                 1 R01      A165c         0         0.05311000         1.00800000
  5725 lmp_005                 1 R01      A165d         0        -0.04569000        12.01000000
  5726 lmp_005                 1 R01      A165e         0        -0.20379000        12.01000000
  5727 lmp_008                 1 R01      A165f         0         0.15591000         1.00800000
  5728 lmp_003                 1 R01      A1660         0        -0.10048000        12.01000000
  5729 lmp_009                 1 R01      A1661         0         0.02361000         1.00800000
  5730 lmp_009                 1 R01      A1662         0         0.02361000         1.00800000
  5731 lmp_009                 1 R01      A1663         0         0.02361000         1.00800000
  5732 lmp_004                 1 R01      A1664         0         0.19001000        12.01000000
  5733 lmp_003                 1 R01      A1665         0        -0.17889000        12.01000000
  5734 lmp_009                 1 R01      A1666         0         0.04121000         1.00800000
  5735 lmp_009                 1 R01      A1667         0         0.04121000         1.00800000
  5736 lmp_009                 1 R01      A1668         0         0.04121000         1.00800000
  5737 lmp_005                 1 R01      A1669         0         0.00401000        12.01000000
  5738 lmp_006                 1 R01      A166a         0         0.00111000        12.01000000
  5739 lmp_005                 1 R01      A166b         0        -0.18989000        12.01000000
  5740 lmp_008                 1 R01      A166c         0         0.14431000         1.00800000
  5741 lmp_005                 1 R01      A166d         0        -0.04879000        12.01000000
  5742 lmp_007                 1 R01      A166e         0         0.03141000        12.01000000
  5743 lmp_009                 1 R01      A166f         0         0.03521000         1.00800000
  5744 lmp_007                 1 R01      A1670         0         0.01591000        12.01000000
  5745 lmp_009                 1 R01      A1671         0         0.03721000         1.00800000
  5746 lmp_004                 1 R01      A1672         0         0.02141000        12.01000000
  5747 lmp_009                 1 R01      A1673         0         0.01911000         1.00800000
  5748 lmp_007                 1 R01      A1674         0         0.02241000        12.01000000
  5749 lmp_009                 1 R01      A1675         0         0.03781000         1.00800000
  5750 lmp_007                 1 R01      A1676         0         0.01411000        12.01000000
  5751 lmp_009                 1 R01      A1677         0         0.03861000         1.00800000
  5752 lmp_004                 1 R01      A1678         0         0.01111000        12.01000000
  5753 lmp_009                 1 R01      A1679         0         0.02341000         1.00800000
  5754 lmp_004                 1 R01      A167a         0        -0.10289000        12.01000000
  5755 lmp_009                 1 R01      A167b         0         0.04701000         1.00800000
  5756 lmp_009                 1 R01      A167c         0         0.04701000         1.00800000
  5757 lmp_005                 1 R01      A167d         0        -0.03099000        12.01000000
  5758 lmp_005                 1 R01      A167e         0        -0.25069000        12.01000000
  5759 lmp_008                 1 R01      A167f         0         0.17281000         1.00800000
  5760 lmp_006                 1 R01      A1680         0         0.02131000        12.01000000
  5761 lmp_005                 1 R01      A1681         0         0.02031000        12.01000000
  5762 lmp_005                 1 R01      A1682         0        -0.24969000        12.01000000
  5763 lmp_008                 1 R01      A1683         0         0.17861000         1.00800000
  5764 lmp_005                 1 R01      A1684         0        -0.03239000        12.01000000
  5765 lmp_007                 1 R01      A1685         0         0.03221000        12.01000000
  5766 lmp_009                 1 R01      A1686         0         0.02561000         1.00800000
  5767 lmp_007                 1 R01      A1687         0         0.02991000        12.01000000
  5768 lmp_009                 1 R01      A1688         0         0.02761000         1.00800000
  5769 lmp_004                 1 R01      A1689         0         0.05471000        12.01000000
  5770 lmp_009                 1 R01      A168a         0         0.00921000         1.00800000
  5771 lmp_007                 1 R01      A168b         0         0.00911000        12.01000000
  5772 lmp_009                 1 R01      A168c         0         0.03851000         1.00800000
  5773 lmp_005                 1 R01      A168d         0        -0.12349000        12.01000000
  5774 lmp_005                 1 R01      A168e         0        -0.12549000        12.01000000
  5775 lmp_005                 1 R01      A168f         0         0.03581000        12.01000000
  5776 lmp_003                 1 R01      A1690         0        -0.11109000        12.01000000
  5777 lmp_009                 1 R01      A1691         0         0.04331000         1.00800000
  5778 lmp_009                 1 R01      A1692         0         0.04331000         1.00800000
  5779 lmp_009                 1 R01      A1693         0         0.04331000         1.00800000
  5780 lmp_005                 1 R01      A1694         0        -0.08649000        12.01000000
  5781 lmp_005                 1 R01      A1695         0        -0.09149000        12.01000000
  5782 lmp_005                 1 R01      A1696         0         0.05181000        12.01000000
  5783 lmp_003                 1 R01      A1697         0        -0.10009000        12.01000000
  5784 lmp_009                 1 R01      A1698         0         0.04551000         1.00800000
  5785 lmp_009                 1 R01      A1699         0         0.04551000         1.00800000
  5786 lmp_009                 1 R01      A169a         0         0.04551000         1.00800000
  5787 lmp_007                 1 R01      A169b         0         0.00531000        12.01000000
  5788 lmp_009                 1 R01      A169c         0         0.03971000         1.00800000
  5789 lmp_004                 1 R01      A169d         0         0.05571000        12.01000000
  5790 lmp_009                 1 R01      A169e         0         0.01041000         1.00800000
  5791 lmp_004                 1 R01      A169f         0        -0.21059000        12.01000000
  5792 lmp_009                 1 R01      A16a0         0         0.05311000         1.00800000
  5793 lmp_009                 1 R01      A16a1         0         0.05311000         1.00800000
  5794 lmp_005                 1 R01      A16a2         0        -0.04569000        12.01000000
  5795 lmp_005                 1 R01      A16a3         0        -0.20379000        12.01000000
  5796 lmp_008                 1 R01      A16a4         0         0.15591000         1.00800000
  5797 lmp_003                 1 R01      A16a5         0        -0.10048000        12.01000000
  5798 lmp_009                 1 R01      A16a6         0         0.02361000         1.00800000
  5799 lmp_009                 1 R01      A16a7         0         0.02361000         1.00800000
  5800 lmp_009                 1 R01      A16a8         0         0.02361000         1.00800000
  5801 lmp_004                 1 R01      A16a9         0         0.19001000        12.01000000
  5802 lmp_003                 1 R01      A16aa         0        -0.17889000        12.01000000
  5803 lmp_009                 1 R01      A16ab         0         0.04121000         1.00800000
  5804 lmp_009                 1 R01      A16ac         0         0.04121000         1.00800000
  5805 lmp_009                 1 R01      A16ad         0         0.04121000         1.00800000
  5806 lmp_005                 1 R01      A16ae         0         0.00401000        12.01000000
  5807 lmp_006                 1 R01      A16af         0         0.00111000        12.01000000
  5808 lmp_005                 1 R01      A16b0         0        -0.18989000        12.01000000
  5809 lmp_008                 1 R01      A16b1         0         0.14431000         1.00800000
  5810 lmp_005                 1 R01      A16b2         0        -0.04879000        12.01000000
  5811 lmp_007                 1 R01      A16b3         0         0.03141000        12.01000000
  5812 lmp_009                 1 R01      A16b4         0         0.03521000         1.00800000
  5813 lmp_007                 1 R01      A16b5         0         0.01591000        12.01000000
  5814 lmp_009                 1 R01      A16b6         0         0.03721000         1.00800000
  5815 lmp_004                 1 R01      A16b7         0         0.02141000        12.01000000
  5816 lmp_009                 1 R01      A16b8         0         0.01911000         1.00800000
  5817 lmp_007                 1 R01      A16b9         0         0.02241000        12.01000000
  5818 lmp_009                 1 R01      A16ba         0         0.03781000         1.00800000
  5819 lmp_007                 1 R01      A16bb         0         0.01411000        12.01000000
  5820 lmp_009                 1 R01      A16bc         0         0.03861000         1.00800000
  5821 lmp_004                 1 R01      A16bd         0         0.01111000        12.01000000
  5822 lmp_009                 1 R01      A16be         0         0.02341000         1.00800000
  5823 lmp_004                 1 R01      A16bf         0        -0.10289000        12.01000000
  5824 lmp_009                 1 R01      A16c0         0         0.04701000         1.00800000
  5825 lmp_009                 1 R01      A16c1         0         0.04701000         1.00800000
  5826 lmp_005                 1 R01      A16c2         0        -0.03099000        12.01000000
  5827 lmp_005                 1 R01      A16c3         0        -0.25069000        12.01000000
  5828 lmp_008                 1 R01      A16c4         0         0.17281000         1.00800000
  5829 lmp_006                 1 R01      A16c5         0         0.02131000        12.01000000
  5830 lmp_005                 1 R01      A16c6         0         0.02031000        12.01000000
  5831 lmp_005                 1 R01      A16c7         0        -0.24969000        12.01000000
  5832 lmp_008                 1 R01      A16c8         0         0.17861000         1.00800000
  5833 lmp_005                 1 R01      A16c9         0        -0.03239000        12.01000000
  5834 lmp_007                 1 R01      A16ca         0         0.03221000        12.01000000
  5835 lmp_009                 1 R01      A16cb         0         0.02561000         1.00800000
  5836 lmp_007                 1 R01      A16cc         0         0.02991000        12.01000000
  5837 lmp_009                 1 R01      A16cd         0         0.02761000         1.00800000
  5838 lmp_004                 1 R01      A16ce         0         0.05471000        12.01000000
  5839 lmp_009                 1 R01      A16cf         0         0.00921000         1.00800000
  5840 lmp_007                 1 R01      A16d0         0         0.00911000        12.01000000
  5841 lmp_009                 1 R01      A16d1         0         0.03851000         1.00800000
  5842 lmp_005                 1 R01      A16d2         0        -0.12349000        12.01000000
  5843 lmp_005                 1 R01      A16d3         0        -0.12549000        12.01000000
  5844 lmp_005                 1 R01      A16d4         0         0.03581000        12.01000000
  5845 lmp_003                 1 R01      A16d5         0        -0.11109000        12.01000000
  5846 lmp_009                 1 R01      A16d6         0         0.04331000         1.00800000
  5847 lmp_009                 1 R01      A16d7         0         0.04331000         1.00800000
  5848 lmp_009                 1 R01      A16d8         0         0.04331000         1.00800000
  5849 lmp_005                 1 R01      A16d9         0        -0.08649000        12.01000000
  5850 lmp_005                 1 R01      A16da         0        -0.09149000        12.01000000
  5851 lmp_005                 1 R01      A16db         0         0.05181000        12.01000000
  5852 lmp_003                 1 R01      A16dc         0        -0.10009000        12.01000000
  5853 lmp_009                 1 R01      A16dd         0         0.04551000         1.00800000
  5854 lmp_009                 1 R01      A16de         0         0.04551000         1.00800000
  5855 lmp_009                 1 R01      A16df         0         0.04551000         1.00800000
  5856 lmp_007                 1 R01      A16e0         0         0.00531000        12.01000000
  5857 lmp_009                 1 R01      A16e1         0         0.03971000         1.00800000
  5858 lmp_004                 1 R01      A16e2         0         0.05571000        12.01000000
  5859 lmp_009                 1 R01      A16e3         0         0.01041000         1.00800000
  5860 lmp_004                 1 R01      A16e4         0        -0.21059000        12.01000000
  5861 lmp_009                 1 R01      A16e5         0         0.05311000         1.00800000
  5862 lmp_009                 1 R01      A16e6         0         0.05311000         1.00800000
  5863 lmp_005                 1 R01      A16e7         0        -0.04569000        12.01000000
  5864 lmp_005                 1 R01      A16e8         0        -0.20379000        12.01000000
  5865 lmp_008                 1 R01      A16e9         0         0.15591000         1.00800000
  5866 lmp_003                 1 R01      A16ea         0        -0.10048000        12.01000000
  5867 lmp_009                 1 R01      A16eb         0         0.02361000         1.00800000
  5868 lmp_009                 1 R01      A16ec         0         0.02361000         1.00800000
  5869 lmp_009                 1 R01      A16ed         0         0.02361000         1.00800000
  5870 lmp_004                 1 R01      A16ee         0         0.19001000        12.01000000
  5871 lmp_003                 1 R01      A16ef         0        -0.17889000        12.01000000
  5872 lmp_009                 1 R01      A16f0         0         0.04121000         1.00800000
  5873 lmp_009                 1 R01      A16f1         0         0.04121000         1.00800000
  5874 lmp_009                 1 R01      A16f2         0         0.04121000         1.00800000
  5875 lmp_005                 1 R01      A16f3         0         0.00401000        12.01000000
  5876 lmp_006                 1 R01      A16f4         0         0.00111000        12.01000000
  5877 lmp_005                 1 R01      A16f5         0        -0.18989000        12.01000000
  5878 lmp_008                 1 R01      A16f6         0         0.14431000         1.00800000
  5879 lmp_005                 1 R01      A16f7         0        -0.04879000        12.01000000
  5880 lmp_007                 1 R01      A16f8         0         0.03141000        12.01000000
  5881 lmp_009                 1 R01      A16f9         0         0.03521000         1.00800000
  5882 lmp_007                 1 R01      A16fa         0         0.01591000        12.01000000
  5883 lmp_009                 1 R01      A16fb         0         0.03721000         1.00800000
  5884 lmp_004                 1 R01      A16fc         0         0.02141000        12.01000000
  5885 lmp_009                 1 R01      A16fd         0         0.01911000         1.00800000
  5886 lmp_007                 1 R01      A16fe         0         0.02241000        12.01000000
  5887 lmp_009                 1 R01      A16ff         0         0.03781000         1.00800000
  5888 lmp_007                 1 R01      A1700         0         0.01411000        12.01000000
  5889 lmp_009                 1 R01      A1701         0         0.03861000         1.00800000
  5890 lmp_004                 1 R01      A1702         0         0.01111000        12.01000000
  5891 lmp_009                 1 R01      A1703         0         0.02341000         1.00800000
  5892 lmp_004                 1 R01      A1704         0        -0.10289000        12.01000000
  5893 lmp_009                 1 R01      A1705         0         0.04701000         1.00800000
  5894 lmp_009                 1 R01      A1706         0         0.04701000         1.00800000
  5895 lmp_005                 1 R01      A1707         0        -0.03099000        12.01000000
  5896 lmp_005                 1 R01      A1708         0        -0.25069000        12.01000000
  5897 lmp_008                 1 R01      A1709         0         0.17281000         1.00800000
  5898 lmp_006                 1 R01      A170a         0         0.02131000        12.01000000
  5899 lmp_005                 1 R01      A170b         0         0.02031000        12.01000000
  5900 lmp_005                 1 R01      A170c         0        -0.24969000        12.01000000
  5901 lmp_008                 1 R01      A170d         0         0.17861000         1.00800000
  5902 lmp_005                 1 R01      A170e         0        -0.03239000        12.01000000
  5903 lmp_007                 1 R01      A170f         0         0.03221000        12.01000000
  5904 lmp_009                 1 R01      A1710         0         0.02561000         1.00800000
  5905 lmp_007                 1 R01      A1711         0         0.02991000        12.01000000
  5906 lmp_009                 1 R01      A1712         0         0.02761000         1.00800000
  5907 lmp_004                 1 R01      A1713         0         0.05471000        12.01000000
  5908 lmp_009                 1 R01      A1714         0         0.00921000         1.00800000
  5909 lmp_007                 1 R01      A1715         0         0.00911000        12.01000000
  5910 lmp_009                 1 R01      A1716         0         0.03851000         1.00800000
  5911 lmp_005                 1 R01      A1717         0        -0.12349000        12.01000000
  5912 lmp_005                 1 R01      A1718         0        -0.12549000        12.01000000
  5913 lmp_005                 1 R01      A1719         0         0.03581000        12.01000000
  5914 lmp_003                 1 R01      A171a         0        -0.11109000        12.01000000
  5915 lmp_009                 1 R01      A171b         0         0.04331000         1.00800000
  5916 lmp_009                 1 R01      A171c         0         0.04331000         1.00800000
  5917 lmp_009                 1 R01      A171d         0         0.04331000         1.00800000
  5918 lmp_005                 1 R01      A171e         0        -0.08649000        12.01000000
  5919 lmp_005                 1 R01      A171f         0        -0.09149000        12.01000000
  5920 lmp_005                 1 R01      A1720         0         0.05181000        12.01000000
  5921 lmp_003                 1 R01      A1721         0        -0.10009000        12.01000000
  5922 lmp_009                 1 R01      A1722         0         0.04551000         1.00800000
  5923 lmp_009                 1 R01      A1723         0         0.04551000         1.00800000
  5924 lmp_009                 1 R01      A1724         0         0.04551000         1.00800000
  5925 lmp_007                 1 R01      A1725         0         0.00531000        12.01000000
  5926 lmp_009                 1 R01      A1726         0         0.03971000         1.00800000
  5927 lmp_004                 1 R01      A1727         0         0.05571000        12.01000000
  5928 lmp_009                 1 R01      A1728         0         0.01041000         1.00800000
  5929 lmp_004                 1 R01      A1729         0        -0.21059000        12.01000000
  5930 lmp_009                 1 R01      A172a         0         0.05311000         1.00800000
  5931 lmp_009                 1 R01      A172b         0         0.05311000         1.00800000
  5932 lmp_005                 1 R01      A172c         0        -0.04569000        12.01000000
  5933 lmp_005                 1 R01      A172d         0        -0.20379000        12.01000000
  5934 lmp_008                 1 R01      A172e         0         0.15591000         1.00800000
  5935 lmp_003                 1 R01      A172f         0        -0.10048000        12.01000000
  5936 lmp_009                 1 R01      A1730         0         0.02361000         1.00800000
  5937 lmp_009                 1 R01      A1731         0         0.02361000         1.00800000
  5938 lmp_009                 1 R01      A1732         0         0.02361000         1.00800000
  5939 lmp_004                 1 R01      A1733         0         0.19001000        12.01000000
  5940 lmp_003                 1 R01      A1734         0        -0.17889000        12.01000000
  5941 lmp_009                 1 R01      A1735         0         0.04121000         1.00800000
  5942 lmp_009                 1 R01      A1736         0         0.04121000         1.00800000
  5943 lmp_009                 1 R01      A1737         0         0.04121000         1.00800000
  5944 lmp_005                 1 R01      A1738         0         0.00401000        12.01000000
  5945 lmp_006                 1 R01      A1739         0         0.00111000        12.01000000
  5946 lmp_005                 1 R01      A173a         0        -0.18989000        12.01000000
  5947 lmp_008                 1 R01      A173b         0         0.14431000         1.00800000
  5948 lmp_005                 1 R01      A173c         0        -0.04879000        12.01000000
  5949 lmp_007                 1 R01      A173d         0         0.03141000        12.01000000
  5950 lmp_009                 1 R01      A173e         0         0.03521000         1.00800000
  5951 lmp_007                 1 R01      A173f         0         0.01591000        12.01000000
  5952 lmp_009                 1 R01      A1740         0         0.03721000         1.00800000
  5953 lmp_004                 1 R01      A1741         0         0.02141000        12.01000000
  5954 lmp_009                 1 R01      A1742         0         0.01911000         1.00800000
  5955 lmp_007                 1 R01      A1743         0         0.02241000        12.01000000
  5956 lmp_009                 1 R01      A1744         0         0.03781000         1.00800000
  5957 lmp_007                 1 R01      A1745         0         0.01411000        12.01000000
  5958 lmp_009                 1 R01      A1746         0         0.03861000         1.00800000
  5959 lmp_004                 1 R01      A1747         0         0.01111000        12.01000000
  5960 lmp_009                 1 R01      A1748         0         0.02341000         1.00800000
  5961 lmp_004                 1 R01      A1749         0        -0.10289000        12.01000000
  5962 lmp_009                 1 R01      A174a         0         0.04701000         1.00800000
  5963 lmp_009                 1 R01      A174b         0         0.04701000         1.00800000
  5964 lmp_005                 1 R01      A174c         0        -0.03099000        12.01000000
  5965 lmp_005                 1 R01      A174d         0        -0.25069000        12.01000000
  5966 lmp_008                 1 R01      A174e         0         0.17281000         1.00800000
  5967 lmp_006                 1 R01      A174f         0         0.02131000        12.01000000
  5968 lmp_005                 1 R01      A1750         0         0.02031000        12.01000000
  5969 lmp_005                 1 R01      A1751         0        -0.24969000        12.01000000
  5970 lmp_008                 1 R01      A1752         0         0.17861000         1.00800000
  5971 lmp_005                 1 R01      A1753         0        -0.03239000        12.01000000
  5972 lmp_007                 1 R01      A1754         0         0.03221000        12.01000000
  5973 lmp_009                 1 R01      A1755         0         0.02561000         1.00800000
  5974 lmp_007                 1 R01      A1756         0         0.02991000        12.01000000
  5975 lmp_009                 1 R01      A1757         0         0.02761000         1.00800000
  5976 lmp_004                 1 R01      A1758         0         0.05471000        12.01000000
  5977 lmp_009                 1 R01      A1759         0         0.00921000         1.00800000
  5978 lmp_007                 1 R01      A175a         0         0.00911000        12.01000000
  5979 lmp_009                 1 R01      A175b         0         0.03851000         1.00800000
  5980 lmp_005                 1 R01      A175c         0        -0.12349000        12.01000000
  5981 lmp_005                 1 R01      A175d         0        -0.12549000        12.01000000
  5982 lmp_005                 1 R01      A175e         0         0.03581000        12.01000000
  5983 lmp_003                 1 R01      A175f         0        -0.11109000        12.01000000
  5984 lmp_009                 1 R01      A1760         0         0.04331000         1.00800000
  5985 lmp_009                 1 R01      A1761         0         0.04331000         1.00800000
  5986 lmp_009                 1 R01      A1762         0         0.04331000         1.00800000
  5987 lmp_005                 1 R01      A1763         0        -0.08649000        12.01000000
  5988 lmp_005                 1 R01      A1764         0        -0.09149000        12.01000000
  5989 lmp_005                 1 R01      A1765         0         0.05181000        12.01000000
  5990 lmp_003                 1 R01      A1766         0        -0.10009000        12.01000000
  5991 lmp_009                 1 R01      A1767         0         0.04551000         1.00800000
  5992 lmp_009                 1 R01      A1768         0         0.04551000         1.00800000
  5993 lmp_009                 1 R01      A1769         0         0.04551000         1.00800000
  5994 lmp_007                 1 R01      A176a         0         0.00531000        12.01000000
  5995 lmp_009                 1 R01      A176b         0         0.03971000         1.00800000
  5996 lmp_004                 1 R01      A176c         0         0.05571000        12.01000000
  5997 lmp_009                 1 R01      A176d         0         0.01041000         1.00800000
  5998 lmp_004                 1 R01      A176e         0        -0.21059000        12.01000000
  5999 lmp_009                 1 R01      A176f         0         0.05311000         1.00800000
  6000 lmp_009                 1 R01      A1770         0         0.05311000         1.00800000
  6001 lmp_005                 1 R01      A1771         0        -0.04569000        12.01000000
  6002 lmp_005                 1 R01      A1772         0        -0.20379000        12.01000000
  6003 lmp_008                 1 R01      A1773         0         0.15591000         1.00800000
  6004 lmp_003                 1 R01      A1774         0        -0.10048000        12.01000000
  6005 lmp_009                 1 R01      A1775         0         0.02361000         1.00800000
  6006 lmp_009                 1 R01      A1776         0         0.02361000         1.00800000
  6007 lmp_009                 1 R01      A1777         0         0.02361000         1.00800000
  6008 lmp_004                 1 R01      A1778         0         0.19001000        12.01000000
  6009 lmp_003                 1 R01      A1779         0        -0.17889000        12.01000000
  6010 lmp_009                 1 R01      A177a         0         0.04121000         1.00800000
  6011 lmp_009                 1 R01      A177b         0         0.04121000         1.00800000
  6012 lmp_009                 1 R01      A177c         0         0.04121000         1.00800000
  6013 lmp_005                 1 R01      A177d         0         0.00401000        12.01000000
  6014 lmp_006                 1 R01      A177e         0         0.00111000        12.01000000
  6015 lmp_005                 1 R01      A177f         0        -0.18989000        12.01000000
  6016 lmp_008                 1 R01      A1780         0         0.14431000         1.00800000
  6017 lmp_005                 1 R01      A1781         0        -0.04879000        12.01000000
  6018 lmp_007                 1 R01      A1782         0         0.03141000        12.01000000
  6019 lmp_009                 1 R01      A1783         0         0.03521000         1.00800000
  6020 lmp_007                 1 R01      A1784         0         0.01591000        12.01000000
  6021 lmp_009                 1 R01      A1785         0         0.03721000         1.00800000
  6022 lmp_004                 1 R01      A1786         0         0.02141000        12.01000000
  6023 lmp_009                 1 R01      A1787         0         0.01911000         1.00800000
  6024 lmp_007                 1 R01      A1788         0         0.02241000        12.01000000
  6025 lmp_009                 1 R01      A1789         0         0.03781000         1.00800000
  6026 lmp_007                 1 R01      A178a         0         0.01411000        12.01000000
  6027 lmp_009                 1 R01      A178b         0         0.03861000         1.00800000
  6028 lmp_004                 1 R01      A178c         0         0.01111000        12.01000000
  6029 lmp_009                 1 R01      A178d         0         0.02341000         1.00800000
  6030 lmp_004                 1 R01      A178e         0        -0.10289000        12.01000000
  6031 lmp_009                 1 R01      A178f         0         0.04701000         1.00800000
  6032 lmp_009                 1 R01      A1790         0         0.04701000         1.00800000
  6033 lmp_005                 1 R01      A1791         0        -0.03099000        12.01000000
  6034 lmp_005                 1 R01      A1792         0        -0.25069000        12.01000000
  6035 lmp_008                 1 R01      A1793         0         0.17281000         1.00800000
  6036 lmp_006                 1 R01      A1794         0         0.02131000        12.01000000
  6037 lmp_005                 1 R01      A1795         0         0.02031000        12.01000000
  6038 lmp_005                 1 R01      A1796         0        -0.24969000        12.01000000
  6039 lmp_008                 1 R01      A1797         0         0.17861000         1.00800000
  6040 lmp_005                 1 R01      A1798         0        -0.03239000        12.01000000
  6041 lmp_007                 1 R01      A1799         0         0.03221000        12.01000000
  6042 lmp_009                 1 R01      A179a         0         0.02561000         1.00800000
  6043 lmp_007                 1 R01      A179b         0         0.02991000        12.01000000
  6044 lmp_009                 1 R01      A179c         0         0.02761000         1.00800000
  6045 lmp_004                 1 R01      A179d         0         0.05471000        12.01000000
  6046 lmp_009                 1 R01      A179e         0         0.00921000         1.00800000
  6047 lmp_007                 1 R01      A179f         0         0.00911000        12.01000000
  6048 lmp_009                 1 R01      A17a0         0         0.03851000         1.00800000
  6049 lmp_005                 1 R01      A17a1         0        -0.12349000        12.01000000
  6050 lmp_005                 1 R01      A17a2         0        -0.12549000        12.01000000
  6051 lmp_005                 1 R01      A17a3         0         0.03581000        12.01000000
  6052 lmp_003                 1 R01      A17a4         0        -0.11109000        12.01000000
  6053 lmp_009                 1 R01      A17a5         0         0.04331000         1.00800000
  6054 lmp_009                 1 R01      A17a6         0         0.04331000         1.00800000
  6055 lmp_009                 1 R01      A17a7         0         0.04331000         1.00800000
  6056 lmp_005                 1 R01      A17a8         0        -0.08649000        12.01000000
  6057 lmp_005                 1 R01      A17a9         0        -0.09149000        12.01000000
  6058 lmp_005                 1 R01      A17aa         0         0.05181000        12.01000000
  6059 lmp_003                 1 R01      A17ab         0        -0.10009000        12.01000000
  6060 lmp_009                 1 R01      A17ac         0         0.04551000         1.00800000
  6061 lmp_009                 1 R01      A17ad         0         0.04551000         1.00800000
  6062 lmp_009                 1 R01      A17ae         0         0.04551000         1.00800000
  6063 lmp_007                 1 R01      A17af         0         0.00531000        12.01000000
  6064 lmp_009                 1 R01      A17b0         0         0.03971000         1.00800000
  6065 lmp_004                 1 R01      A17b1         0         0.05571000        12.01000000
  6066 lmp_009                 1 R01      A17b2         0         0.01041000         1.00800000
  6067 lmp_004                 1 R01      A17b3         0        -0.21059000        12.01000000
  6068 lmp_009                 1 R01      A17b4         0         0.05311000         1.00800000
  6069 lmp_009                 1 R01      A17b5         0         0.05311000         1.00800000
  6070 lmp_005                 1 R01      A17b6         0        -0.04569000        12.01000000
  6071 lmp_005                 1 R01      A17b7         0        -0.20379000        12.01000000
  6072 lmp_008                 1 R01      A17b8         0         0.15591000         1.00800000
  6073 lmp_003                 1 R01      A17b9         0        -0.10048000        12.01000000
  6074 lmp_009                 1 R01      A17ba         0         0.02361000         1.00800000
  6075 lmp_009                 1 R01      A17bb         0         0.02361000         1.00800000
  6076 lmp_009                 1 R01      A17bc         0         0.02361000         1.00800000
  6077 lmp_004                 1 R01      A17bd         0         0.19001000        12.01000000
  6078 lmp_003                 1 R01      A17be         0        -0.17889000        12.01000000
  6079 lmp_009                 1 R01      A17bf         0         0.04121000         1.00800000
  6080 lmp_009                 1 R01      A17c0         0         0.04121000         1.00800000
  6081 lmp_009                 1 R01      A17c1         0         0.04121000         1.00800000
  6082 lmp_005                 1 R01      A17c2         0         0.00401000        12.01000000
  6083 lmp_006                 1 R01      A17c3         0         0.00111000        12.01000000
  6084 lmp_005                 1 R01      A17c4         0        -0.18989000        12.01000000
  6085 lmp_008                 1 R01      A17c5         0         0.14431000         1.00800000
  6086 lmp_005                 1 R01      A17c6         0        -0.04879000        12.01000000
  6087 lmp_007                 1 R01      A17c7         0         0.03141000        12.01000000
  6088 lmp_009                 1 R01      A17c8         0         0.03521000         1.00800000
  6089 lmp_007                 1 R01      A17c9         0         0.01591000        12.01000000
  6090 lmp_009                 1 R01      A17ca         0         0.03721000         1.00800000
  6091 lmp_004                 1 R01      A17cb         0         0.02141000        12.01000000
  6092 lmp_009                 1 R01      A17cc         0         0.01911000         1.00800000
  6093 lmp_007                 1 R01      A17cd         0         0.02241000        12.01000000
  6094 lmp_009                 1 R01      A17ce         0         0.03781000         1.00800000
  6095 lmp_007                 1 R01      A17cf         0         0.01411000        12.01000000
  6096 lmp_009                 1 R01      A17d0         0         0.03861000         1.00800000
  6097 lmp_004                 1 R01      A17d1         0         0.01111000        12.01000000
  6098 lmp_009                 1 R01      A17d2         0         0.02341000         1.00800000
  6099 lmp_004                 1 R01      A17d3         0        -0.10289000        12.01000000
  6100 lmp_009                 1 R01      A17d4         0         0.04701000         1.00800000
  6101 lmp_009                 1 R01      A17d5         0         0.04701000         1.00800000
  6102 lmp_005                 1 R01      A17d6         0        -0.03099000        12.01000000
  6103 lmp_005                 1 R01      A17d7         0        -0.25069000        12.01000000
  6104 lmp_008                 1 R01      A17d8         0         0.17281000         1.00800000
  6105 lmp_006                 1 R01      A17d9         0         0.02131000        12.01000000
  6106 lmp_005                 1 R01      A17da         0         0.02031000        12.01000000
  6107 lmp_005                 1 R01      A17db         0        -0.24969000        12.01000000
  6108 lmp_008                 1 R01      A17dc         0         0.17861000         1.00800000
  6109 lmp_005                 1 R01      A17dd         0        -0.03239000        12.01000000
  6110 lmp_007                 1 R01      A17de         0         0.03221000        12.01000000
  6111 lmp_009                 1 R01      A17df         0         0.02561000         1.00800000
  6112 lmp_007                 1 R01      A17e0         0         0.02991000        12.01000000
  6113 lmp_009                 1 R01      A17e1         0         0.02761000         1.00800000
  6114 lmp_004                 1 R01      A17e2         0         0.05471000        12.01000000
  6115 lmp_009                 1 R01      A17e3         0         0.00921000         1.00800000
  6116 lmp_007                 1 R01      A17e4         0         0.00911000        12.01000000
  6117 lmp_009                 1 R01      A17e5         0         0.03851000         1.00800000
  6118 lmp_005                 1 R01      A17e6         0        -0.12349000        12.01000000
  6119 lmp_005                 1 R01      A17e7         0        -0.12549000        12.01000000
  6120 lmp_005                 1 R01      A17e8         0         0.03581000        12.01000000
  6121 lmp_003                 1 R01      A17e9         0        -0.11109000        12.01000000
  6122 lmp_009                 1 R01      A17ea         0         0.04331000         1.00800000
  6123 lmp_009                 1 R01      A17eb         0         0.04331000         1.00800000
  6124 lmp_009                 1 R01      A17ec         0         0.04331000         1.00800000
  6125 lmp_005                 1 R01      A17ed         0        -0.08649000        12.01000000
  6126 lmp_005                 1 R01      A17ee         0        -0.09149000        12.01000000
  6127 lmp_005                 1 R01      A17ef         0         0.05181000        12.01000000
  6128 lmp_003                 1 R01      A17f0         0        -0.10009000        12.01000000
  6129 lmp_009                 1 R01      A17f1         0         0.04551000         1.00800000
  6130 lmp_009                 1 R01      A17f2         0         0.04551000         1.00800000
  6131 lmp_009                 1 R01      A17f3         0         0.04551000         1.00800000
  6132 lmp_007                 1 R01      A17f4         0         0.00531000        12.01000000
  6133 lmp_009                 1 R01      A17f5         0         0.03971000         1.00800000
  6134 lmp_004                 1 R01      A17f6         0         0.05571000        12.01000000
  6135 lmp_009                 1 R01      A17f7         0         0.01041000         1.00800000
  6136 lmp_004                 1 R01      A17f8         0        -0.21059000        12.01000000
  6137 lmp_009                 1 R01      A17f9         0         0.05311000         1.00800000
  6138 lmp_009                 1 R01      A17fa         0         0.05311000         1.00800000
  6139 lmp_005                 1 R01      A17fb         0        -0.04569000        12.01000000
  6140 lmp_005                 1 R01      A17fc         0        -0.20379000        12.01000000
  6141 lmp_008                 1 R01      A17fd         0         0.15591000         1.00800000
  6142 lmp_003                 1 R01      A17fe         0        -0.10048000        12.01000000
  6143 lmp_009                 1 R01      A17ff         0         0.02361000         1.00800000
  6144 lmp_009                 1 R01      A1800         0         0.02361000         1.00800000
  6145 lmp_009                 1 R01      A1801         0         0.02361000         1.00800000
  6146 lmp_004                 1 R01      A1802         0         0.19001000        12.01000000
  6147 lmp_003                 1 R01      A1803         0        -0.17889000        12.01000000
  6148 lmp_009                 1 R01      A1804         0         0.04121000         1.00800000
  6149 lmp_009                 1 R01      A1805         0         0.04121000         1.00800000
  6150 lmp_009                 1 R01      A1806         0         0.04121000         1.00800000
  6151 lmp_005                 1 R01      A1807         0         0.00401000        12.01000000
  6152 lmp_006                 1 R01      A1808         0         0.00111000        12.01000000
  6153 lmp_005                 1 R01      A1809         0        -0.18989000        12.01000000
  6154 lmp_008                 1 R01      A180a         0         0.14431000         1.00800000
  6155 lmp_005                 1 R01      A180b         0        -0.04879000        12.01000000
  6156 lmp_007                 1 R01      A180c         0         0.03141000        12.01000000
  6157 lmp_009                 1 R01      A180d         0         0.03521000         1.00800000
  6158 lmp_007                 1 R01      A180e         0         0.01591000        12.01000000
  6159 lmp_009                 1 R01      A180f         0         0.03721000         1.00800000
  6160 lmp_004                 1 R01      A1810         0         0.02141000        12.01000000
  6161 lmp_009                 1 R01      A1811         0         0.01911000         1.00800000
  6162 lmp_001                 1 R01      A1812         0         0.02241000        12.01000000
  6163 lmp_009                 1 R01      A1813         0         0.03781000         1.00800000
  6164 lmp_001                 1 R01      A1814         0         0.01411000        12.01000000
  6165 lmp_009                 1 R01      A1815         0         0.03861000         1.00800000
  6166 lmp_004                 1 R01      A1816         0         0.01111000        12.01000000
  6167 lmp_009                 1 R01      A1817         0         0.02341000         1.00800000
  6168 lmp_004                 1 R01      A1818         0        -0.10289000        12.01000000
  6169 lmp_009                 1 R01      A1819         0         0.04701000         1.00800000
  6170 lmp_009                 1 R01      A181a         0         0.04701000         1.00800000
  6171 lmp_005                 1 R01      A181b         0        -0.03099000        12.01000000
  6172 lmp_005                 1 R01      A181c         0        -0.25069000        12.01000000
  6173 lmp_008                 1 R01      A181d         0         0.17281000         1.00800000
  6174 lmp_006                 1 R01      A181e         0         0.02131000        12.01000000
  6175 lmp_005                 1 R01      A181f         0         0.02031000        12.01000000
  6176 lmp_005                 1 R01      A1820         0        -0.24969000        12.01000000
  6177 lmp_008                 1 R01      A1821         0         0.17861000         1.00800000
  6178 lmp_005                 1 R01      A1822         0        -0.03239000        12.01000000
  6179 lmp_007                 1 R01      A1823         0         0.03221000        12.01000000
  6180 lmp_009                 1 R01      A1824         0         0.02561000         1.00800000
  6181 lmp_007                 1 R01      A1825         0         0.02991000        12.01000000
  6182 lmp_009                 1 R01      A1826         0         0.02761000         1.00800000
  6183 lmp_004                 1 R01      A1827         0         0.05471000        12.01000000
  6184 lmp_009                 1 R01      A1828         0         0.00921000         1.00800000
  6185 lmp_007                 1 R01      A1829         0         0.00911000        12.01000000
  6186 lmp_009                 1 R01      A182a         0         0.03851000         1.00800000
  6187 lmp_005                 1 R01      A182b         0        -0.12349000        12.01000000
  6188 lmp_005                 1 R01      A182c         0        -0.12549000        12.01000000
  6189 lmp_005                 1 R01      A182d         0         0.03581000        12.01000000
  6190 lmp_003                 1 R01      A182e         0        -0.11109000        12.01000000
  6191 lmp_009                 1 R01      A182f         0         0.04331000         1.00800000
  6192 lmp_009                 1 R01      A1830         0         0.04331000         1.00800000
  6193 lmp_009                 1 R01      A1831         0         0.04331000         1.00800000
  6194 lmp_005                 1 R01      A1832         0        -0.08649000        12.01000000
  6195 lmp_005                 1 R01      A1833         0        -0.09149000        12.01000000
  6196 lmp_005                 1 R01      A1834         0         0.05181000        12.01000000
  6197 lmp_003                 1 R01      A1835         0        -0.10009000        12.01000000
  6198 lmp_009                 1 R01      A1836         0         0.04551000         1.00800000
  6199 lmp_009                 1 R01      A1837         0         0.04551000         1.00800000
  6200 lmp_009                 1 R01      A1838         0         0.04551000         1.00800000
  6201 lmp_007                 1 R01      A1839         0         0.00531000        12.01000000
  6202 lmp_009                 1 R01      A183a         0         0.03971000         1.00800000
  6203 lmp_004                 1 R01      A183b         0         0.05571000        12.01000000
  6204 lmp_009                 1 R01      A183c         0         0.01041000         1.00800000
  6205 lmp_004                 1 R01      A183d         0        -0.21059000        12.01000000
  6206 lmp_009                 1 R01      A183e         0         0.05311000         1.00800000
  6207 lmp_009                 1 R01      A183f         0         0.05311000         1.00800000
  6208 lmp_005                 1 R01      A1840         0        -0.04569000        12.01000000
  6209 lmp_005                 1 R01      A1841         0        -0.20379000        12.01000000
  6210 lmp_008                 1 R01      A1842         0         0.15591000         1.00800000
  6211 lmp_003                 1 R01      A1843         0        -0.10048000        12.01000000
  6212 lmp_009                 1 R01      A1844         0         0.02361000         1.00800000
  6213 lmp_009                 1 R01      A1845         0         0.02361000         1.00800000
  6214 lmp_009                 1 R01      A1846         0         0.02361000         1.00800000
  6215 lmp_004                 1 R01      A1847         0         0.19001000        12.01000000
  6216 lmp_003                 1 R01      A1848         0        -0.17889000        12.01000000
  6217 lmp_009                 1 R01      A1849         0         0.04121000         1.00800000
  6218 lmp_009                 1 R01      A184a         0         0.04121000         1.00800000
  6219 lmp_009                 1 R01      A184b         0         0.04121000         1.00800000
  6220 lmp_005                 1 R01      A184c         0         0.00401000        12.01000000
  6221 lmp_006                 1 R01      A184d         0         0.00111000        12.01000000
  6222 lmp_005                 1 R01      A184e         0        -0.18989000        12.01000000
  6223 lmp_008                 1 R01      A184f         0         0.14431000         1.00800000
  6224 lmp_005                 1 R01      A1850         0        -0.04879000        12.01000000
  6225 lmp_007                 1 R01      A1851         0         0.03141000        12.01000000
  6226 lmp_009                 1 R01      A1852         0         0.03521000         1.00800000
  6227 lmp_007                 1 R01      A1853         0         0.01591000        12.01000000
  6228 lmp_009                 1 R01      A1854         0         0.03721000         1.00800000
  6229 lmp_004                 1 R01      A1855         0         0.02141000        12.01000000
  6230 lmp_009                 1 R01      A1856         0         0.01911000         1.00800000
  6231 lmp_007                 1 R01      A1857         0         0.02241000        12.01000000
  6232 lmp_009                 1 R01      A1858         0         0.03781000         1.00800000
  6233 lmp_007                 1 R01      A1859         0         0.01411000        12.01000000
  6234 lmp_009                 1 R01      A185a         0         0.03861000         1.00800000
  6235 lmp_004                 1 R01      A185b         0         0.01111000        12.01000000
  6236 lmp_009                 1 R01      A185c         0         0.02341000         1.00800000
  6237 lmp_004                 1 R01      A185d         0        -0.10289000        12.01000000
  6238 lmp_009                 1 R01      A185e         0         0.04701000         1.00800000
  6239 lmp_009                 1 R01      A185f         0         0.04701000         1.00800000
  6240 lmp_005                 1 R01      A1860         0        -0.03099000        12.01000000
  6241 lmp_005                 1 R01      A1861         0        -0.25069000        12.01000000
  6242 lmp_008                 1 R01      A1862         0         0.17281000         1.00800000
  6243 lmp_006                 1 R01      A1863         0         0.02131000        12.01000000
  6244 lmp_005                 1 R01      A1864         0         0.02031000        12.01000000
  6245 lmp_005                 1 R01      A1865         0        -0.24969000        12.01000000
  6246 lmp_008                 1 R01      A1866         0         0.17861000         1.00800000
  6247 lmp_005                 1 R01      A1867         0        -0.03239000        12.01000000
  6248 lmp_007                 1 R01      A1868         0         0.03221000        12.01000000
  6249 lmp_009                 1 R01      A1869         0         0.02561000         1.00800000
  6250 lmp_007                 1 R01      A186a         0         0.02991000        12.01000000
  6251 lmp_009                 1 R01      A186b         0         0.02761000         1.00800000
  6252 lmp_004                 1 R01      A186c         0         0.05471000        12.01000000
  6253 lmp_009                 1 R01      A186d         0         0.00921000         1.00800000
  6254 lmp_007                 1 R01      A186e         0         0.00911000        12.01000000
  6255 lmp_009                 1 R01      A186f         0         0.03851000         1.00800000
  6256 lmp_005                 1 R01      A1870         0        -0.12349000        12.01000000
  6257 lmp_005                 1 R01      A1871         0        -0.12549000        12.01000000
  6258 lmp_005                 1 R01      A1872         0         0.03581000        12.01000000
  6259 lmp_003                 1 R01      A1873         0        -0.11109000        12.01000000
  6260 lmp_009                 1 R01      A1874         0         0.04331000         1.00800000
  6261 lmp_009                 1 R01      A1875         0         0.04331000         1.00800000
  6262 lmp_009                 1 R01      A1876         0         0.04331000         1.00800000
  6263 lmp_005                 1 R01      A1877         0        -0.08649000        12.01000000
  6264 lmp_005                 1 R01      A1878         0        -0.09149000        12.01000000
  6265 lmp_005                 1 R01      A1879         0         0.05181000        12.01000000
  6266 lmp_003                 1 R01      A187a         0        -0.10009000        12.01000000
  6267 lmp_009                 1 R01      A187b         0         0.04551000         1.00800000
  6268 lmp_009                 1 R01      A187c         0         0.04551000         1.00800000
  6269 lmp_009                 1 R01      A187d         0         0.04551000         1.00800000
  6270 lmp_007                 1 R01      A187e         0         0.00531000        12.01000000
  6271 lmp_009                 1 R01      A187f         0         0.03971000         1.00800000
  6272 lmp_004                 1 R01      A1880         0         0.05571000        12.01000000
  6273 lmp_009                 1 R01      A1881         0         0.01041000         1.00800000
  6274 lmp_004                 1 R01      A1882         0        -0.21059000        12.01000000
  6275 lmp_009                 1 R01      A1883         0         0.05311000         1.00800000
  6276 lmp_009                 1 R01      A1884         0         0.05311000         1.00800000
  6277 lmp_005                 1 R01      A1885         0        -0.04569000        12.01000000
  6278 lmp_005                 1 R01      A1886         0        -0.20379000        12.01000000
  6279 lmp_008                 1 R01      A1887         0         0.15591000         1.00800000
  6280 lmp_003                 1 R01      A1888         0        -0.10048000        12.01000000
  6281 lmp_009                 1 R01      A1889         0         0.02361000         1.00800000
  6282 lmp_009                 1 R01      A188a         0         0.02361000         1.00800000
  6283 lmp_009                 1 R01      A188b         0         0.02361000         1.00800000
  6284 lmp_004                 1 R01      A188c         0         0.19001000        12.01000000
  6285 lmp_003                 1 R01      A188d         0        -0.17889000        12.01000000
  6286 lmp_009                 1 R01      A188e         0         0.04121000         1.00800000
  6287 lmp_009                 1 R01      A188f         0         0.04121000         1.00800000
  6288 lmp_009                 1 R01      A1890         0         0.04121000         1.00800000
  6289 lmp_005                 1 R01      A1891         0         0.00401000        12.01000000
  6290 lmp_006                 1 R01      A1892         0         0.00111000        12.01000000
  6291 lmp_005                 1 R01      A1893         0        -0.18989000        12.01000000
  6292 lmp_008                 1 R01      A1894         0         0.14431000         1.00800000
  6293 lmp_005                 1 R01      A1895         0        -0.04879000        12.01000000
  6294 lmp_007                 1 R01      A1896         0         0.03141000        12.01000000
  6295 lmp_009                 1 R01      A1897         0         0.03521000         1.00800000
  6296 lmp_007                 1 R01      A1898         0         0.01591000        12.01000000
  6297 lmp_009                 1 R01      A1899         0         0.03721000         1.00800000
  6298 lmp_004                 1 R01      A189a         0         0.02141000        12.01000000
  6299 lmp_009                 1 R01      A189b         0         0.01911000         1.00800000
  6300 lmp_007                 1 R01      A189c         0         0.02241000        12.01000000
  6301 lmp_009                 1 R01      A189d         0         0.03781000         1.00800000
  6302 lmp_007                 1 R01      A189e         0         0.01411000        12.01000000
  6303 lmp_009                 1 R01      A189f         0         0.03861000         1.00800000
  6304 lmp_004                 1 R01      A18a0         0         0.01111000        12.01000000
  6305 lmp_009                 1 R01      A18a1         0         0.02341000         1.00800000
  6306 lmp_004                 1 R01      A18a2         0        -0.10289000        12.01000000
  6307 lmp_009                 1 R01      A18a3         0         0.04701000         1.00800000
  6308 lmp_009                 1 R01      A18a4         0         0.04701000         1.00800000
  6309 lmp_005                 1 R01      A18a5         0        -0.03099000        12.01000000
  6310 lmp_005                 1 R01      A18a6         0        -0.25069000        12.01000000
  6311 lmp_008                 1 R01      A18a7         0         0.17281000         1.00800000
  6312 lmp_006                 1 R01      A18a8         0         0.02131000        12.01000000
  6313 lmp_005                 1 R01      A18a9         0         0.02031000        12.01000000
  6314 lmp_005                 1 R01      A18aa         0        -0.24969000        12.01000000
  6315 lmp_008                 1 R01      A18ab         0         0.17861000         1.00800000
  6316 lmp_005                 1 R01      A18ac         0        -0.03239000        12.01000000
  6317 lmp_007                 1 R01      A18ad         0         0.03221000        12.01000000
  6318 lmp_009                 1 R01      A18ae         0         0.02561000         1.00800000
  6319 lmp_007                 1 R01      A18af         0         0.02991000        12.01000000
  6320 lmp_009                 1 R01      A18b0         0         0.02761000         1.00800000
  6321 lmp_004                 1 R01      A18b1         0         0.05471000        12.01000000
  6322 lmp_009                 1 R01      A18b2         0         0.00921000         1.00800000
  6323 lmp_007                 1 R01      A18b3         0         0.00911000        12.01000000
  6324 lmp_009                 1 R01      A18b4         0         0.03851000         1.00800000
  6325 lmp_005                 1 R01      A18b5         0        -0.12349000        12.01000000
  6326 lmp_005                 1 R01      A18b6         0        -0.12549000        12.01000000
  6327 lmp_005                 1 R01      A18b7         0         0.03581000        12.01000000
  6328 lmp_003                 1 R01      A18b8         0        -0.11109000        12.01000000
  6329 lmp_009                 1 R01      A18b9         0         0.04331000         1.00800000
  6330 lmp_009                 1 R01      A18ba         0         0.04331000         1.00800000
  6331 lmp_009                 1 R01      A18bb         0         0.04331000         1.00800000
  6332 lmp_005                 1 R01      A18bc         0        -0.08649000        12.01000000
  6333 lmp_005                 1 R01      A18bd         0        -0.09149000        12.01000000
  6334 lmp_005                 1 R01      A18be         0         0.05181000        12.01000000
  6335 lmp_003                 1 R01      A18bf         0        -0.10009000        12.01000000
  6336 lmp_009                 1 R01      A18c0         0         0.04551000         1.00800000
  6337 lmp_009                 1 R01      A18c1         0         0.04551000         1.00800000
  6338 lmp_009                 1 R01      A18c2         0         0.04551000         1.00800000
  6339 lmp_007                 1 R01      A18c3         0         0.00531000        12.01000000
  6340 lmp_009                 1 R01      A18c4         0         0.03971000         1.00800000
  6341 lmp_004                 1 R01      A18c5         0         0.05571000        12.01000000
  6342 lmp_009                 1 R01      A18c6         0         0.01041000         1.00800000
  6343 lmp_004                 1 R01      A18c7         0        -0.21059000        12.01000000
  6344 lmp_009                 1 R01      A18c8         0         0.05311000         1.00800000
  6345 lmp_009                 1 R01      A18c9         0         0.05311000         1.00800000
  6346 lmp_005                 1 R01      A18ca         0        -0.04569000        12.01000000
  6347 lmp_005                 1 R01      A18cb         0        -0.20379000        12.01000000
  6348 lmp_008                 1 R01      A18cc         0         0.15591000         1.00800000
  6349 lmp_003                 1 R01      A18cd         0        -0.10048000        12.01000000
  6350 lmp_009                 1 R01      A18ce         0         0.02361000         1.00800000
  6351 lmp_009                 1 R01      A18cf         0         0.02361000         1.00800000
  6352 lmp_009                 1 R01      A18d0         0         0.02361000         1.00800000
  6353 lmp_004                 1 R01      A18d1         0         0.19001000        12.01000000
  6354 lmp_003                 1 R01      A18d2         0        -0.17889000        12.01000000
  6355 lmp_009                 1 R01      A18d3         0         0.04121000         1.00800000
  6356 lmp_009                 1 R01      A18d4         0         0.04121000         1.00800000
  6357 lmp_009                 1 R01      A18d5         0         0.04121000         1.00800000
  6358 lmp_005                 1 R01      A18d6         0         0.00401000        12.01000000
  6359 lmp_006                 1 R01      A18d7         0         0.00111000        12.01000000
  6360 lmp_005                 1 R01      A18d8         0        -0.18989000        12.01000000
  6361 lmp_008                 1 R01      A18d9         0         0.14431000         1.00800000
  6362 lmp_005                 1 R01      A18da         0        -0.04879000        12.01000000
  6363 lmp_007                 1 R01      A18db         0         0.03141000        12.01000000
  6364 lmp_009                 1 R01      A18dc         0         0.03521000         1.00800000
  6365 lmp_007                 1 R01      A18dd         0         0.01591000        12.01000000
  6366 lmp_009                 1 R01      A18de         0         0.03721000         1.00800000
  6367 lmp_004                 1 R01      A18df         0         0.02141000        12.01000000
  6368 lmp_009                 1 R01      A18e0         0         0.01911000         1.00800000
  6369 lmp_007                 1 R01      A18e1         0         0.02241000        12.01000000
  6370 lmp_009                 1 R01      A18e2         0         0.03781000         1.00800000
  6371 lmp_007                 1 R01      A18e3         0         0.01411000        12.01000000
  6372 lmp_009                 1 R01      A18e4         0         0.03861000         1.00800000
  6373 lmp_004                 1 R01      A18e5         0         0.01111000        12.01000000
  6374 lmp_009                 1 R01      A18e6         0         0.02341000         1.00800000
  6375 lmp_004                 1 R01      A18e7         0        -0.10289000        12.01000000
  6376 lmp_009                 1 R01      A18e8         0         0.04701000         1.00800000
  6377 lmp_009                 1 R01      A18e9         0         0.04701000         1.00800000
  6378 lmp_005                 1 R01      A18ea         0        -0.03099000        12.01000000
  6379 lmp_005                 1 R01      A18eb         0        -0.25069000        12.01000000
  6380 lmp_008                 1 R01      A18ec         0         0.17281000         1.00800000
  6381 lmp_006                 1 R01      A18ed         0         0.02131000        12.01000000
  6382 lmp_005                 1 R01      A18ee         0         0.02031000        12.01000000
  6383 lmp_005                 1 R01      A18ef         0        -0.24969000        12.01000000
  6384 lmp_008                 1 R01      A18f0         0         0.17861000         1.00800000
  6385 lmp_005                 1 R01      A18f1         0        -0.03239000        12.01000000
  6386 lmp_007                 1 R01      A18f2         0         0.03221000        12.01000000
  6387 lmp_009                 1 R01      A18f3         0         0.02561000         1.00800000
  6388 lmp_007                 1 R01      A18f4         0         0.02991000        12.01000000
  6389 lmp_009                 1 R01      A18f5         0         0.02761000         1.00800000
  6390 lmp_004                 1 R01      A18f6         0         0.05471000        12.01000000
  6391 lmp_009                 1 R01      A18f7         0         0.00921000         1.00800000
  6392 lmp_007                 1 R01      A18f8         0         0.00911000        12.01000000
  6393 lmp_009                 1 R01      A18f9         0         0.03851000         1.00800000
  6394 lmp_005                 1 R01      A18fa         0        -0.12349000        12.01000000
  6395 lmp_005                 1 R01      A18fb         0        -0.12549000        12.01000000
  6396 lmp_005                 1 R01      A18fc         0         0.03581000        12.01000000
  6397 lmp_003                 1 R01      A18fd         0        -0.11109000        12.01000000
  6398 lmp_009                 1 R01      A18fe         0         0.04331000         1.00800000
  6399 lmp_009                 1 R01      A18ff         0         0.04331000         1.00800000
  6400 lmp_009                 1 R01      A1900         0         0.04331000         1.00800000
  6401 lmp_005                 1 R01      A1901         0        -0.08649000        12.01000000
  6402 lmp_005                 1 R01      A1902         0        -0.09149000        12.01000000
  6403 lmp_005                 1 R01      A1903         0         0.05181000        12.01000000
  6404 lmp_003                 1 R01      A1904         0        -0.10009000        12.01000000
  6405 lmp_009                 1 R01      A1905         0         0.04551000         1.00800000
  6406 lmp_009                 1 R01      A1906         0         0.04551000         1.00800000
  6407 lmp_009                 1 R01      A1907         0         0.04551000         1.00800000
  6408 lmp_007                 1 R01      A1908         0         0.00531000        12.01000000
  6409 lmp_009                 1 R01      A1909         0         0.03971000         1.00800000
  6410 lmp_004                 1 R01      A190a         0         0.05571000        12.01000000
  6411 lmp_009                 1 R01      A190b         0         0.01041000         1.00800000
  6412 lmp_004                 1 R01      A190c         0        -0.21059000        12.01000000
  6413 lmp_009                 1 R01      A190d         0         0.05311000         1.00800000
  6414 lmp_009                 1 R01      A190e         0         0.05311000         1.00800000
  6415 lmp_005                 1 R01      A190f         0        -0.04569000        12.01000000
  6416 lmp_005                 1 R01      A1910         0        -0.20379000        12.01000000
  6417 lmp_008                 1 R01      A1911         0         0.15591000         1.00800000
  6418 lmp_003                 1 R01      A1912         0        -0.10048000        12.01000000
  6419 lmp_009                 1 R01      A1913         0         0.02361000         1.00800000
  6420 lmp_009                 1 R01      A1914         0         0.02361000         1.00800000
  6421 lmp_009                 1 R01      A1915         0         0.02361000         1.00800000
  6422 lmp_004                 1 R01      A1916         0         0.19001000        12.01000000
  6423 lmp_003                 1 R01      A1917         0        -0.17889000        12.01000000
  6424 lmp_009                 1 R01      A1918         0         0.04121000         1.00800000
  6425 lmp_009                 1 R01      A1919         0         0.04121000         1.00800000
  6426 lmp_009                 1 R01      A191a         0         0.04121000         1.00800000
  6427 lmp_005                 1 R01      A191b         0         0.00401000        12.01000000
  6428 lmp_006                 1 R01      A191c         0         0.00111000        12.01000000
  6429 lmp_005                 1 R01      A191d         0        -0.18989000        12.01000000
  6430 lmp_008                 1 R01      A191e         0         0.14431000         1.00800000
  6431 lmp_005                 1 R01      A191f         0        -0.04879000        12.01000000
  6432 lmp_007                 1 R01      A1920         0         0.03141000        12.01000000
  6433 lmp_009                 1 R01      A1921         0         0.03521000         1.00800000
  6434 lmp_007                 1 R01      A1922         0         0.01591000        12.01000000
  6435 lmp_009                 1 R01      A1923         0         0.03721000         1.00800000
  6436 lmp_004                 1 R01      A1924         0         0.02141000        12.01000000
  6437 lmp_009                 1 R01      A1925         0         0.01911000         1.00800000
  6438 lmp_007                 1 R01      A1926         0         0.02241000        12.01000000
  6439 lmp_009                 1 R01      A1927         0         0.03781000         1.00800000
  6440 lmp_007                 1 R01      A1928         0         0.01411000        12.01000000
  6441 lmp_009                 1 R01      A1929         0         0.03861000         1.00800000
  6442 lmp_004                 1 R01      A192a         0         0.01111000        12.01000000
  6443 lmp_009                 1 R01      A192b         0         0.02341000         1.00800000
  6444 lmp_004                 1 R01      A192c         0        -0.10289000        12.01000000
  6445 lmp_009                 1 R01      A192d         0         0.04701000         1.00800000
  6446 lmp_009                 1 R01      A192e         0         0.04701000         1.00800000
  6447 lmp_005                 1 R01      A192f         0        -0.03099000        12.01000000
  6448 lmp_005                 1 R01      A1930         0        -0.25069000        12.01000000
  6449 lmp_008                 1 R01      A1931         0         0.17281000         1.00800000
  6450 lmp_006                 1 R01      A1932         0         0.02131000        12.01000000
  6451 lmp_005                 1 R01      A1933         0         0.02031000        12.01000000
  6452 lmp_005                 1 R01      A1934         0        -0.24969000        12.01000000
  6453 lmp_008                 1 R01      A1935         0         0.17861000         1.00800000
  6454 lmp_005                 1 R01      A1936         0        -0.03239000        12.01000000
  6455 lmp_007                 1 R01      A1937         0         0.03221000        12.01000000
  6456 lmp_009                 1 R01      A1938         0         0.02561000         1.00800000
  6457 lmp_007                 1 R01      A1939         0         0.02991000        12.01000000
  6458 lmp_009                 1 R01      A193a         0         0.02761000         1.00800000
  6459 lmp_004                 1 R01      A193b         0         0.05471000        12.01000000
  6460 lmp_009                 1 R01      A193c         0         0.00921000         1.00800000
  6461 lmp_007                 1 R01      A193d         0         0.00911000        12.01000000
  6462 lmp_009                 1 R01      A193e         0         0.03851000         1.00800000
  6463 lmp_005                 1 R01      A193f         0        -0.12349000        12.01000000
  6464 lmp_005                 1 R01      A1940         0        -0.12549000        12.01000000
  6465 lmp_005                 1 R01      A1941         0         0.03581000        12.01000000
  6466 lmp_003                 1 R01      A1942         0        -0.11109000        12.01000000
  6467 lmp_009                 1 R01      A1943         0         0.04331000         1.00800000
  6468 lmp_009                 1 R01      A1944         0         0.04331000         1.00800000
  6469 lmp_009                 1 R01      A1945         0         0.04331000         1.00800000
  6470 lmp_005                 1 R01      A1946         0        -0.08649000        12.01000000
  6471 lmp_005                 1 R01      A1947         0        -0.09149000        12.01000000
  6472 lmp_005                 1 R01      A1948         0         0.05181000        12.01000000
  6473 lmp_003                 1 R01      A1949         0        -0.10009000        12.01000000
  6474 lmp_009                 1 R01      A194a         0         0.04551000         1.00800000
  6475 lmp_009                 1 R01      A194b         0         0.04551000         1.00800000
  6476 lmp_009                 1 R01      A194c         0         0.04551000         1.00800000
  6477 lmp_007                 1 R01      A194d         0         0.00531000        12.01000000
  6478 lmp_009                 1 R01      A194e         0         0.03971000         1.00800000
  6479 lmp_004                 1 R01      A194f         0         0.05571000        12.01000000
  6480 lmp_009                 1 R01      A1950         0         0.01041000         1.00800000
  6481 lmp_004                 1 R01      A1951         0        -0.21059000        12.01000000
  6482 lmp_009                 1 R01      A1952         0         0.05311000         1.00800000
  6483 lmp_009                 1 R01      A1953         0         0.05311000         1.00800000
  6484 lmp_005                 1 R01      A1954         0        -0.04569000        12.01000000
  6485 lmp_005                 1 R01      A1955         0        -0.20379000        12.01000000
  6486 lmp_008                 1 R01      A1956         0         0.15591000         1.00800000
  6487 lmp_003                 1 R01      A1957         0        -0.10048000        12.01000000
  6488 lmp_009                 1 R01      A1958         0         0.02361000         1.00800000
  6489 lmp_009                 1 R01      A1959         0         0.02361000         1.00800000
  6490 lmp_009                 1 R01      A195a         0         0.02361000         1.00800000
  6491 lmp_004                 1 R01      A195b         0         0.19001000        12.01000000
  6492 lmp_003                 1 R01      A195c         0        -0.17889000        12.01000000
  6493 lmp_009                 1 R01      A195d         0         0.04121000         1.00800000
  6494 lmp_009                 1 R01      A195e         0         0.04121000         1.00800000
  6495 lmp_009                 1 R01      A195f         0         0.04121000         1.00800000
  6496 lmp_005                 1 R01      A1960         0         0.00401000        12.01000000
  6497 lmp_006                 1 R01      A1961         0         0.00111000        12.01000000
  6498 lmp_005                 1 R01      A1962         0        -0.18989000        12.01000000
  6499 lmp_008                 1 R01      A1963         0         0.14431000         1.00800000
  6500 lmp_005                 1 R01      A1964         0        -0.04879000        12.01000000
  6501 lmp_007                 1 R01      A1965         0         0.03141000        12.01000000
  6502 lmp_009                 1 R01      A1966         0         0.03521000         1.00800000
  6503 lmp_007                 1 R01      A1967         0         0.01591000        12.01000000
  6504 lmp_009                 1 R01      A1968         0         0.03721000         1.00800000
  6505 lmp_004                 1 R01      A1969         0         0.02141000        12.01000000
  6506 lmp_009                 1 R01      A196a         0         0.01911000         1.00800000
  6507 lmp_007                 1 R01      A196b         0         0.02241000        12.01000000
  6508 lmp_009                 1 R01      A196c         0         0.03781000         1.00800000
  6509 lmp_007                 1 R01      A196d         0         0.01411000        12.01000000
  6510 lmp_009                 1 R01      A196e         0         0.03861000         1.00800000
  6511 lmp_004                 1 R01      A196f         0         0.01111000        12.01000000
  6512 lmp_009                 1 R01      A1970         0         0.02341000         1.00800000
  6513 lmp_004                 1 R01      A1971         0        -0.10289000        12.01000000
  6514 lmp_009                 1 R01      A1972         0         0.04701000         1.00800000
  6515 lmp_009                 1 R01      A1973         0         0.04701000         1.00800000
  6516 lmp_005                 1 R01      A1974         0        -0.03099000        12.01000000
  6517 lmp_005                 1 R01      A1975         0        -0.25069000        12.01000000
  6518 lmp_008                 1 R01      A1976         0         0.17281000         1.00800000
  6519 lmp_006                 1 R01      A1977         0         0.02131000        12.01000000
  6520 lmp_005                 1 R01      A1978         0         0.02031000        12.01000000
  6521 lmp_005                 1 R01      A1979         0        -0.24969000        12.01000000
  6522 lmp_008                 1 R01      A197a         0         0.17861000         1.00800000
  6523 lmp_005                 1 R01      A197b         0        -0.03239000        12.01000000
  6524 lmp_007                 1 R01      A197c         0         0.03221000        12.01000000
  6525 lmp_009                 1 R01      A197d         0         0.02561000         1.00800000
  6526 lmp_007                 1 R01      A197e         0         0.02991000        12.01000000
  6527 lmp_009                 1 R01      A197f         0         0.02761000         1.00800000
  6528 lmp_004                 1 R01      A1980         0         0.05471000        12.01000000
  6529 lmp_009                 1 R01      A1981         0         0.00921000         1.00800000
  6530 lmp_007                 1 R01      A1982         0         0.00911000        12.01000000
  6531 lmp_009                 1 R01      A1983         0         0.03851000         1.00800000
  6532 lmp_005                 1 R01      A1984         0        -0.12349000        12.01000000
  6533 lmp_005                 1 R01      A1985         0        -0.12549000        12.01000000
  6534 lmp_005                 1 R01      A1986         0         0.03581000        12.01000000
  6535 lmp_003                 1 R01      A1987         0        -0.11109000        12.01000000
  6536 lmp_009                 1 R01      A1988         0         0.04331000         1.00800000
  6537 lmp_009                 1 R01      A1989         0         0.04331000         1.00800000
  6538 lmp_009                 1 R01      A198a         0         0.04331000         1.00800000
  6539 lmp_002                 1 R01      A198b         0        -0.08649000        12.01000000
  6540 lmp_002                 1 R01      A198c         0        -0.09149000        12.01000000
  6541 lmp_005                 1 R01      A198d         0         0.05181000        12.01000000
  6542 lmp_003                 1 R01      A198e         0        -0.10009000        12.01000000
  6543 lmp_009                 1 R01      A198f         0         0.04551000         1.00800000
  6544 lmp_009                 1 R01      A1990         0         0.04551000         1.00800000
  6545 lmp_009                 1 R01      A1991         0         0.04551000         1.00800000
  6546 lmp_007                 1 R01      A1992         0         0.00531000        12.01000000
  6547 lmp_009                 1 R01      A1993         0         0.03971000         1.00800000
  6548 lmp_004                 1 R01      A1994         0         0.05571000        12.01000000
  6549 lmp_009                 1 R01      A1995         0         0.01041000         1.00800000
  6550 lmp_004                 1 R01      A1996         0        -0.21059000        12.01000000
  6551 lmp_009                 1 R01      A1997         0         0.05311000         1.00800000
  6552 lmp_009                 1 R01      A1998         0         0.05311000         1.00800000
  6553 lmp_005                 1 R01      A1999         0        -0.04569000        12.01000000
  6554 lmp_005                 1 R01      A199a         0        -0.20379000        12.01000000
  6555 lmp_008                 1 R01      A199b         0         0.15591000         1.00800000
  6556 lmp_003                 1 R01      A199c         0        -0.10048000        12.01000000
  6557 lmp_009                 1 R01      A199d         0         0.02361000         1.00800000
  6558 lmp_009                 1 R01      A199e         0         0.02361000         1.00800000
  6559 lmp_009                 1 R01      A199f         0         0.02361000         1.00800000
  6560 lmp_004                 1 R01      A19a0         0         0.19001000        12.01000000
  6561 lmp_003                 1 R01      A19a1         0        -0.17889000        12.01000000
  6562 lmp_009                 1 R01      A19a2         0         0.04121000         1.00800000
  6563 lmp_009                 1 R01      A19a3         0         0.04121000         1.00800000
  6564 lmp_009                 1 R01      A19a4         0         0.04121000         1.00800000
  6565 lmp_005                 1 R01      A19a5         0         0.00401000        12.01000000
  6566 lmp_006                 1 R01      A19a6         0         0.00111000        12.01000000
  6567 lmp_005                 1 R01      A19a7         0        -0.18989000        12.01000000
  6568 lmp_008                 1 R01      A19a8         0         0.14431000         1.00800000
  6569 lmp_005                 1 R01      A19a9         0        -0.04879000        12.01000000
  6570 lmp_007                 1 R01      A19aa         0         0.03141000        12.01000000
  6571 lmp_009                 1 R01      A19ab         0         0.03521000         1.00800000
  6572 lmp_007                 1 R01      A19ac         0         0.01591000        12.01000000
  6573 lmp_009                 1 R01      A19ad         0         0.03721000         1.00800000
  6574 lmp_004                 1 R01      A19ae         0         0.02141000        12.01000000
  6575 lmp_009                 1 R01      A19af         0         0.01911000         1.00800000
  6576 lmp_007                 1 R01      A19b0         0         0.02241000        12.01000000
  6577 lmp_009                 1 R01      A19b1         0         0.03781000         1.00800000
  6578 lmp_007                 1 R01      A19b2         0         0.01411000        12.01000000
  6579 lmp_009                 1 R01      A19b3         0         0.03861000         1.00800000
  6580 lmp_004                 1 R01      A19b4         0         0.01111000        12.01000000
  6581 lmp_009                 1 R01      A19b5         0         0.02341000         1.00800000
  6582 lmp_004                 1 R01      A19b6         0        -0.10289000        12.01000000
  6583 lmp_009                 1 R01      A19b7         0         0.04701000         1.00800000
  6584 lmp_009                 1 R01      A19b8         0         0.04701000         1.00800000
  6585 lmp_005                 1 R01      A19b9         0        -0.03099000        12.01000000
  6586 lmp_005                 1 R01      A19ba         0        -0.25069000        12.01000000
  6587 lmp_008                 1 R01      A19bb         0         0.17281000         1.00800000
  6588 lmp_006                 1 R01      A19bc         0         0.02131000        12.01000000
  6589 lmp_005                 1 R01      A19bd         0         0.02031000        12.01000000
  6590 lmp_005                 1 R01      A19be         0        -0.24969000        12.01000000
  6591 lmp_008                 1 R01      A19bf         0         0.17861000         1.00800000
  6592 lmp_005                 1 R01      A19c0         0        -0.03239000        12.01000000
  6593 lmp_007                 1 R01      A19c1         0         0.03221000        12.01000000
  6594 lmp_009                 1 R01      A19c2         0         0.02561000         1.00800000
  6595 lmp_007                 1 R01      A19c3         0         0.02991000        12.01000000
  6596 lmp_009                 1 R01      A19c4         0         0.02761000         1.00800000
  6597 lmp_004                 1 R01      A19c5         0         0.05471000        12.01000000
  6598 lmp_009                 1 R01      A19c6         0         0.00921000         1.00800000
  6599 lmp_007                 1 R01      A19c7         0         0.00911000        12.01000000
  6600 lmp_009                 1 R01      A19c8         0         0.03851000         1.00800000
  6601 lmp_005                 1 R01      A19c9         0        -0.12349000        12.01000000
  6602 lmp_005                 1 R01      A19ca         0        -0.12549000        12.01000000
  6603 lmp_005                 1 R01      A19cb         0         0.03581000        12.01000000
  6604 lmp_003                 1 R01      A19cc         0        -0.11109000        12.01000000
  6605 lmp_009                 1 R01      A19cd         0         0.04331000         1.00800000
  6606 lmp_009                 1 R01      A19ce         0         0.04331000         1.00800000
  6607 lmp_009                 1 R01      A19cf         0         0.04331000         1.00800000
  6608 lmp_005                 1 R01      A19d0         0        -0.08649000        12.01000000
  6609 lmp_005                 1 R01      A19d1         0        -0.09149000        12.01000000
  6610 lmp_005                 1 R01      A19d2         0         0.05181000        12.01000000
  6611 lmp_003                 1 R01      A19d3         0        -0.10009000        12.01000000
  6612 lmp_009                 1 R01      A19d4         0         0.04551000         1.00800000
  6613 lmp_009                 1 R01      A19d5         0         0.04551000         1.00800000
  6614 lmp_009                 1 R01      A19d6         0         0.04551000         1.00800000
  6615 lmp_007                 1 R01      A19d7         0         0.00531000        12.01000000
  6616 lmp_009                 1 R01      A19d8         0         0.03971000         1.00800000
  6617 lmp_004                 1 R01      A19d9         0         0.05571000        12.01000000
  6618 lmp_009                 1 R01      A19da         0         0.01041000         1.00800000
  6619 lmp_004                 1 R01      A19db         0        -0.21059000        12.01000000
  6620 lmp_009                 1 R01      A19dc         0         0.05311000         1.00800000
  6621 lmp_009                 1 R01      A19dd         0         0.05311000         1.00800000
  6622 lmp_005                 1 R01      A19de         0        -0.04569000        12.01000000
  6623 lmp_005                 1 R01      A19df         0        -0.20379000        12.01000000
  6624 lmp_008                 1 R01      A19e0         0         0.15591000         1.00800000
  6625 lmp_003                 1 R01      A19e1         0        -0.10048000        12.01000000
  6626 lmp_009                 1 R01      A19e2         0         0.02361000         1.00800000
  6627 lmp_009                 1 R01      A19e3         0         0.02361000         1.00800000
  6628 lmp_009                 1 R01      A19e4         0         0.02361000         1.00800000
  6629 lmp_004                 1 R01      A19e5         0         0.19001000        12.01000000
  6630 lmp_003                 1 R01      A19e6         0        -0.17889000        12.01000000
  6631 lmp_009                 1 R01      A19e7         0         0.04121000         1.00800000
  6632 lmp_009                 1 R01      A19e8         0         0.04121000         1.00800000
  6633 lmp_009                 1 R01      A19e9         0         0.04121000         1.00800000
  6634 lmp_005                 1 R01      A19ea         0         0.00401000        12.01000000
  6635 lmp_006                 1 R01      A19eb         0         0.00111000        12.01000000
  6636 lmp_005                 1 R01      A19ec         0        -0.18989000        12.01000000
  6637 lmp_008                 1 R01      A19ed         0         0.14431000         1.00800000
  6638 lmp_005                 1 R01      A19ee         0        -0.04879000        12.01000000
  6639 lmp_007                 1 R01      A19ef         0         0.03141000        12.01000000
  6640 lmp_009                 1 R01      A19f0         0         0.03521000         1.00800000
  6641 lmp_007                 1 R01      A19f1         0         0.01591000        12.01000000
  6642 lmp_009                 1 R01      A19f2         0         0.03721000         1.00800000
  6643 lmp_004                 1 R01      A19f3         0         0.02141000        12.01000000
  6644 lmp_009                 1 R01      A19f4         0         0.01911000         1.00800000
  6645 lmp_007                 1 R01      A19f5         0         0.02241000        12.01000000
  6646 lmp_009                 1 R01      A19f6         0         0.03781000         1.00800000
  6647 lmp_007                 1 R01      A19f7         0         0.01411000        12.01000000
  6648 lmp_009                 1 R01      A19f8         0         0.03861000         1.00800000
  6649 lmp_004                 1 R01      A19f9         0         0.01111000        12.01000000
  6650 lmp_009                 1 R01      A19fa         0         0.02341000         1.00800000
  6651 lmp_004                 1 R01      A19fb         0        -0.10289000        12.01000000
  6652 lmp_009                 1 R01      A19fc         0         0.04701000         1.00800000
  6653 lmp_009                 1 R01      A19fd         0         0.04701000         1.00800000
  6654 lmp_005                 1 R01      A19fe         0        -0.03099000        12.01000000
  6655 lmp_005                 1 R01      A19ff         0        -0.25069000        12.01000000
  6656 lmp_008                 1 R01      A1a00         0         0.17281000         1.00800000
  6657 lmp_006                 1 R01      A1a01         0         0.02131000        12.01000000
  6658 lmp_005                 1 R01      A1a02         0         0.02031000        12.01000000
  6659 lmp_005                 1 R01      A1a03         0        -0.24969000        12.01000000
  6660 lmp_008                 1 R01      A1a04         0         0.17861000         1.00800000
  6661 lmp_005                 1 R01      A1a05         0        -0.03239000        12.01000000
  6662 lmp_007                 1 R01      A1a06         0         0.03221000        12.01000000
  6663 lmp_009                 1 R01      A1a07         0         0.02561000         1.00800000
  6664 lmp_007                 1 R01      A1a08         0         0.02991000        12.01000000
  6665 lmp_009                 1 R01      A1a09         0         0.02761000         1.00800000
  6666 lmp_004                 1 R01      A1a0a         0         0.05471000        12.01000000
  6667 lmp_009                 1 R01      A1a0b         0         0.00921000         1.00800000
  6668 lmp_007                 1 R01      A1a0c         0         0.00911000        12.01000000
  6669 lmp_009                 1 R01      A1a0d         0         0.03851000         1.00800000
  6670 lmp_005                 1 R01      A1a0e         0        -0.12349000        12.01000000
  6671 lmp_005                 1 R01      A1a0f         0        -0.12549000        12.01000000
  6672 lmp_005                 1 R01      A1a10         0         0.03581000        12.01000000
  6673 lmp_003                 1 R01      A1a11         0        -0.11109000        12.01000000
  6674 lmp_009                 1 R01      A1a12         0         0.04331000         1.00800000
  6675 lmp_009                 1 R01      A1a13         0         0.04331000         1.00800000
  6676 lmp_009                 1 R01      A1a14         0         0.04331000         1.00800000
  6677 lmp_005                 1 R01      A1a15         0        -0.08649000        12.01000000
  6678 lmp_005                 1 R01      A1a16         0        -0.09149000        12.01000000
  6679 lmp_005                 1 R01      A1a17         0         0.05181000        12.01000000
  6680 lmp_003                 1 R01      A1a18         0        -0.10009000        12.01000000
  6681 lmp_009                 1 R01      A1a19         0         0.04551000         1.00800000
  6682 lmp_009                 1 R01      A1a1a         0         0.04551000         1.00800000
  6683 lmp_009                 1 R01      A1a1b         0         0.04551000         1.00800000
  6684 lmp_007                 1 R01      A1a1c         0         0.00531000        12.01000000
  6685 lmp_009                 1 R01      A1a1d         0         0.03971000         1.00800000
  6686 lmp_004                 1 R01      A1a1e         0         0.05571000        12.01000000
  6687 lmp_009                 1 R01      A1a1f         0         0.01041000         1.00800000
  6688 lmp_004                 1 R01      A1a20         0        -0.21059000        12.01000000
  6689 lmp_009                 1 R01      A1a21         0         0.05311000         1.00800000
  6690 lmp_009                 1 R01      A1a22         0         0.05311000         1.00800000
  6691 lmp_005                 1 R01      A1a23         0        -0.04569000        12.01000000
  6692 lmp_005                 1 R01      A1a24         0        -0.20379000        12.01000000
  6693 lmp_008                 1 R01      A1a25         0         0.15591000         1.00800000
  6694 lmp_003                 1 R01      A1a26         0        -0.10048000        12.01000000
  6695 lmp_009                 1 R01      A1a27         0         0.02361000         1.00800000
  6696 lmp_009                 1 R01      A1a28         0         0.02361000         1.00800000
  6697 lmp_009                 1 R01      A1a29         0         0.02361000         1.00800000
  6698 lmp_004                 1 R01      A1a2a         0         0.19001000        12.01000000
  6699 lmp_003                 1 R01      A1a2b         0        -0.17889000        12.01000000
  6700 lmp_009                 1 R01      A1a2c         0         0.04121000         1.00800000
  6701 lmp_009                 1 R01      A1a2d         0         0.04121000         1.00800000
  6702 lmp_009                 1 R01      A1a2e         0         0.04121000         1.00800000
  6703 lmp_005                 1 R01      A1a2f         0         0.00401000        12.01000000
  6704 lmp_006                 1 R01      A1a30         0         0.00111000        12.01000000
  6705 lmp_005                 1 R01      A1a31         0        -0.18989000        12.01000000
  6706 lmp_008                 1 R01      A1a32         0         0.14431000         1.00800000
  6707 lmp_005                 1 R01      A1a33         0        -0.04879000        12.01000000
  6708 lmp_007                 1 R01      A1a34         0         0.03141000        12.01000000
  6709 lmp_009                 1 R01      A1a35         0         0.03521000         1.00800000
  6710 lmp_007                 1 R01      A1a36         0         0.01591000        12.01000000
  6711 lmp_009                 1 R01      A1a37         0         0.03721000         1.00800000
  6712 lmp_004                 1 R01      A1a38         0         0.02141000        12.01000000
  6713 lmp_009                 1 R01      A1a39         0         0.01911000         1.00800000
  6714 lmp_007                 1 R01      A1a3a         0         0.02241000        12.01000000
  6715 lmp_009                 1 R01      A1a3b         0         0.03781000         1.00800000
  6716 lmp_007                 1 R01      A1a3c         0         0.01411000        12.01000000
  6717 lmp_009                 1 R01      A1a3d         0         0.03861000         1.00800000
  6718 lmp_004                 1 R01      A1a3e         0         0.01111000        12.01000000
  6719 lmp_009                 1 R01      A1a3f         0         0.02341000         1.00800000
  6720 lmp_004                 1 R01      A1a40         0        -0.10289000        12.01000000
  6721 lmp_009                 1 R01      A1a41         0         0.04701000         1.00800000
  6722 lmp_009                 1 R01      A1a42         0         0.04701000         1.00800000
  6723 lmp_005                 1 R01      A1a43         0        -0.03099000        12.01000000
  6724 lmp_005                 1 R01      A1a44         0        -0.25069000        12.01000000
  6725 lmp_008                 1 R01      A1a45         0         0.17281000         1.00800000
  6726 lmp_006                 1 R01      A1a46         0         0.02131000        12.01000000
  6727 lmp_005                 1 R01      A1a47         0         0.02031000        12.01000000
  6728 lmp_005                 1 R01      A1a48         0        -0.24969000        12.01000000
  6729 lmp_008                 1 R01      A1a49         0         0.17861000         1.00800000
  6730 lmp_005                 1 R01      A1a4a         0        -0.03239000        12.01000000
  6731 lmp_007                 1 R01      A1a4b         0         0.03221000        12.01000000
  6732 lmp_009                 1 R01      A1a4c         0         0.02561000         1.00800000
  6733 lmp_007                 1 R01      A1a4d         0         0.02991000        12.01000000
  6734 lmp_009                 1 R01      A1a4e         0         0.02761000         1.00800000
  6735 lmp_004                 1 R01      A1a4f         0         0.05471000        12.01000000
  6736 lmp_009                 1 R01      A1a50         0         0.00921000         1.00800000
  6737 lmp_007                 1 R01      A1a51         0         0.00911000        12.01000000
  6738 lmp_009                 1 R01      A1a52         0         0.03851000         1.00800000
  6739 lmp_005                 1 R01      A1a53         0        -0.12349000        12.01000000
  6740 lmp_005                 1 R01      A1a54         0        -0.12549000        12.01000000
  6741 lmp_005                 1 R01      A1a55         0         0.03581000        12.01000000
  6742 lmp_003                 1 R01      A1a56         0        -0.11109000        12.01000000
  6743 lmp_009                 1 R01      A1a57         0         0.04331000         1.00800000
  6744 lmp_009                 1 R01      A1a58         0         0.04331000         1.00800000
  6745 lmp_009                 1 R01      A1a59         0         0.04331000         1.00800000
  6746 lmp_005                 1 R01      A1a5a         0        -0.08649000        12.01000000
  6747 lmp_005                 1 R01      A1a5b         0        -0.09149000        12.01000000
  6748 lmp_005                 1 R01      A1a5c         0         0.05181000        12.01000000
  6749 lmp_003                 1 R01      A1a5d         0        -0.10009000        12.01000000
  6750 lmp_009                 1 R01      A1a5e         0         0.04551000         1.00800000
  6751 lmp_009                 1 R01      A1a5f         0         0.04551000         1.00800000
  6752 lmp_009                 1 R01      A1a60         0         0.04551000         1.00800000
  6753 lmp_007                 1 R01      A1a61         0         0.00531000        12.01000000
  6754 lmp_009                 1 R01      A1a62         0         0.03971000         1.00800000
  6755 lmp_004                 1 R01      A1a63         0         0.05571000        12.01000000
  6756 lmp_009                 1 R01      A1a64         0         0.01041000         1.00800000
  6757 lmp_004                 1 R01      A1a65         0        -0.21059000        12.01000000
  6758 lmp_009                 1 R01      A1a66         0         0.05311000         1.00800000
  6759 lmp_009                 1 R01      A1a67         0         0.05311000         1.00800000
  6760 lmp_005                 1 R01      A1a68         0        -0.04569000        12.01000000
  6761 lmp_005                 1 R01      A1a69         0        -0.20379000        12.01000000
  6762 lmp_008                 1 R01      A1a6a         0         0.15591000         1.00800000
  6763 lmp_003                 1 R01      A1a6b         0        -0.10048000        12.01000000
  6764 lmp_009                 1 R01      A1a6c         0         0.02361000         1.00800000
  6765 lmp_009                 1 R01      A1a6d         0         0.02361000         1.00800000
  6766 lmp_009                 1 R01      A1a6e         0         0.02361000         1.00800000
  6767 lmp_004                 1 R01      A1a6f         0         0.19001000        12.01000000
  6768 lmp_003                 1 R01      A1a70         0        -0.17889000        12.01000000
  6769 lmp_009                 1 R01      A1a71         0         0.04121000         1.00800000
  6770 lmp_009                 1 R01      A1a72         0         0.04121000         1.00800000
  6771 lmp_009                 1 R01      A1a73         0         0.04121000         1.00800000
  6772 lmp_005                 1 R01      A1a74         0         0.00401000        12.01000000
  6773 lmp_006                 1 R01      A1a75         0         0.00111000        12.01000000
  6774 lmp_005                 1 R01      A1a76         0        -0.18989000        12.01000000
  6775 lmp_008                 1 R01      A1a77         0         0.14431000         1.00800000
  6776 lmp_005                 1 R01      A1a78         0        -0.04879000        12.01000000
  6777 lmp_007                 1 R01      A1a79         0         0.03141000        12.01000000
  6778 lmp_009                 1 R01      A1a7a         0         0.03521000         1.00800000
  6779 lmp_007                 1 R01      A1a7b         0         0.01591000        12.01000000
  6780 lmp_009                 1 R01      A1a7c         0         0.03721000         1.00800000
  6781 lmp_004                 1 R01      A1a7d         0         0.02141000        12.01000000
  6782 lmp_009                 1 R01      A1a7e         0         0.01911000         1.00800000
  6783 lmp_007                 1 R01      A1a7f         0         0.02241000        12.01000000
  6784 lmp_009                 1 R01      A1a80         0         0.03781000         1.00800000
  6785 lmp_007                 1 R01      A1a81         0         0.01411000        12.01000000
  6786 lmp_009                 1 R01      A1a82         0         0.03861000         1.00800000
  6787 lmp_004                 1 R01      A1a83         0         0.01111000        12.01000000
  6788 lmp_009                 1 R01      A1a84         0         0.02341000         1.00800000
  6789 lmp_004                 1 R01      A1a85         0        -0.10289000        12.01000000
  6790 lmp_009                 1 R01      A1a86         0         0.04701000         1.00800000
  6791 lmp_009                 1 R01      A1a87         0         0.04701000         1.00800000
  6792 lmp_005                 1 R01      A1a88         0        -0.03099000        12.01000000
  6793 lmp_005                 1 R01      A1a89         0        -0.25069000        12.01000000
  6794 lmp_008                 1 R01      A1a8a         0         0.17281000         1.00800000
  6795 lmp_006                 1 R01      A1a8b         0         0.02131000        12.01000000
  6796 lmp_005                 1 R01      A1a8c         0         0.02031000        12.01000000
  6797 lmp_005                 1 R01      A1a8d         0        -0.24969000        12.01000000
  6798 lmp_008                 1 R01      A1a8e         0         0.17861000         1.00800000
  6799 lmp_005                 1 R01      A1a8f         0        -0.03239000        12.01000000
  6800 lmp_007                 1 R01      A1a90         0         0.03221000        12.01000000
  6801 lmp_009                 1 R01      A1a91         0         0.02561000         1.00800000
  6802 lmp_007                 1 R01      A1a92         0         0.02991000        12.01000000
  6803 lmp_009                 1 R01      A1a93         0         0.02761000         1.00800000
  6804 lmp_004                 1 R01      A1a94         0         0.05471000        12.01000000
  6805 lmp_009                 1 R01      A1a95         0         0.00921000         1.00800000
  6806 lmp_007                 1 R01      A1a96         0         0.00911000        12.01000000
  6807 lmp_009                 1 R01      A1a97         0         0.03851000         1.00800000
  6808 lmp_005                 1 R01      A1a98         0        -0.12349000        12.01000000
  6809 lmp_005                 1 R01      A1a99         0        -0.12549000        12.01000000
  6810 lmp_005                 1 R01      A1a9a         0         0.03581000        12.01000000
  6811 lmp_003                 1 R01      A1a9b         0        -0.11109000        12.01000000
  6812 lmp_009                 1 R01      A1a9c         0         0.04331000         1.00800000
  6813 lmp_009                 1 R01      A1a9d         0         0.04331000         1.00800000
  6814 lmp_009                 1 R01      A1a9e         0         0.04331000         1.00800000
  6815 lmp_005                 1 R01      A1a9f         0        -0.08649000        12.01000000
  6816 lmp_005                 1 R01      A1aa0         0        -0.09149000        12.01000000
  6817 lmp_005                 1 R01      A1aa1         0         0.05181000        12.01000000
  6818 lmp_003                 1 R01      A1aa2         0        -0.10009000        12.01000000
  6819 lmp_009                 1 R01      A1aa3         0         0.04551000         1.00800000
  6820 lmp_009                 1 R01      A1aa4         0         0.04551000         1.00800000
  6821 lmp_009                 1 R01      A1aa5         0         0.04551000         1.00800000
  6822 lmp_007                 1 R01      A1aa6         0         0.00531000        12.01000000
  6823 lmp_009                 1 R01      A1aa7         0         0.03971000         1.00800000
  6824 lmp_004                 1 R01      A1aa8         0         0.05571000        12.01000000
  6825 lmp_009                 1 R01      A1aa9         0         0.01041000         1.00800000
  6826 lmp_004                 1 R01      A1aaa         0        -0.21059000        12.01000000
  6827 lmp_009                 1 R01      A1aab         0         0.05311000         1.00800000
  6828 lmp_009                 1 R01      A1aac         0         0.05311000         1.00800000
  6829 lmp_005                 1 R01      A1aad         0        -0.04569000        12.01000000
  6830 lmp_005                 1 R01      A1aae         0        -0.20379000        12.01000000
  6831 lmp_008                 1 R01      A1aaf         0         0.15591000         1.00800000
  6832 lmp_003                 1 R01      A1ab0         0        -0.10048000        12.01000000
  6833 lmp_009                 1 R01      A1ab1         0         0.02361000         1.00800000
  6834 lmp_009                 1 R01      A1ab2         0         0.02361000         1.00800000
  6835 lmp_009                 1 R01      A1ab3         0         0.02361000         1.00800000
  6836 lmp_004                 1 R01      A1ab4         0         0.19001000        12.01000000
  6837 lmp_003                 1 R01      A1ab5         0        -0.17889000        12.01000000
  6838 lmp_009                 1 R01      A1ab6         0         0.04121000         1.00800000
  6839 lmp_009                 1 R01      A1ab7         0         0.04121000         1.00800000
  6840 lmp_009                 1 R01      A1ab8         0         0.04121000         1.00800000
  6841 lmp_005                 1 R01      A1ab9         0         0.00401000        12.01000000
  6842 lmp_006                 1 R01      A1aba         0         0.00111000        12.01000000
  6843 lmp_005                 1 R01      A1abb         0        -0.18989000        12.01000000
  6844 lmp_008                 1 R01      A1abc         0         0.14431000         1.00800000
  6845 lmp_005                 1 R01      A1abd         0        -0.04879000        12.01000000
  6846 lmp_007                 1 R01      A1abe         0         0.03141000        12.01000000
  6847 lmp_009                 1 R01      A1abf         0         0.03521000         1.00800000
  6848 lmp_007                 1 R01      A1ac0         0         0.01591000        12.01000000
  6849 lmp_009                 1 R01      A1ac1         0         0.03721000         1.00800000
  6850 lmp_004                 1 R01      A1ac2         0         0.02141000        12.01000000
  6851 lmp_009                 1 R01      A1ac3         0         0.01911000         1.00800000
  6852 lmp_007                 1 R01      A1ac4         0         0.02241000        12.01000000
  6853 lmp_009                 1 R01      A1ac5         0         0.03781000         1.00800000
  6854 lmp_007                 1 R01      A1ac6         0         0.01411000        12.01000000
  6855 lmp_009                 1 R01      A1ac7         0         0.03861000         1.00800000
  6856 lmp_004                 1 R01      A1ac8         0         0.01111000        12.01000000
  6857 lmp_009                 1 R01      A1ac9         0         0.02341000         1.00800000
  6858 lmp_004                 1 R01      A1aca         0        -0.10289000        12.01000000
  6859 lmp_009                 1 R01      A1acb         0         0.04701000         1.00800000
  6860 lmp_009                 1 R01      A1acc         0         0.04701000         1.00800000
  6861 lmp_005                 1 R01      A1acd         0        -0.03099000        12.01000000
  6862 lmp_005                 1 R01      A1ace         0        -0.25069000        12.01000000
  6863 lmp_008                 1 R01      A1acf         0         0.17281000         1.00800000
  6864 lmp_006                 1 R01      A1ad0         0         0.02131000        12.01000000
  6865 lmp_005                 1 R01      A1ad1         0         0.02031000        12.01000000
  6866 lmp_005                 1 R01      A1ad2         0        -0.24969000        12.01000000
  6867 lmp_008                 1 R01      A1ad3         0         0.17861000         1.00800000
  6868 lmp_005                 1 R01      A1ad4         0        -0.03239000        12.01000000
  6869 lmp_007                 1 R01      A1ad5         0         0.03221000        12.01000000
  6870 lmp_009                 1 R01      A1ad6         0         0.02561000         1.00800000
  6871 lmp_007                 1 R01      A1ad7         0         0.02991000        12.01000000
  6872 lmp_009                 1 R01      A1ad8         0         0.02761000         1.00800000
  6873 lmp_004                 1 R01      A1ad9         0         0.05471000        12.01000000
  6874 lmp_009                 1 R01      A1ada         0         0.00921000         1.00800000
  6875 lmp_007                 1 R01      A1adb         0         0.00911000        12.01000000
  6876 lmp_009                 1 R01      A1adc         0         0.03851000         1.00800000
  6877 lmp_005                 1 R01      A1add         0        -0.12349000        12.01000000
  6878 lmp_005                 1 R01      A1ade         0        -0.12549000        12.01000000
  6879 lmp_005                 1 R01      A1adf         0         0.03581000        12.01000000
  6880 lmp_003                 1 R01      A1ae0         0        -0.11109000        12.01000000
  6881 lmp_009                 1 R01      A1ae1         0         0.04331000         1.00800000
  6882 lmp_009                 1 R01      A1ae2         0         0.04331000         1.00800000
  6883 lmp_009                 1 R01      A1ae3         0         0.04331000         1.00800000
  6884 lmp_005                 1 R01      A1ae4         0        -0.08649000        12.01000000
  6885 lmp_005                 1 R01      A1ae5         0        -0.09149000        12.01000000
  6886 lmp_005                 1 R01      A1ae6         0         0.05181000        12.01000000
  6887 lmp_003                 1 R01      A1ae7         0        -0.10009000        12.01000000
  6888 lmp_009                 1 R01      A1ae8         0         0.04551000         1.00800000
  6889 lmp_009                 1 R01      A1ae9         0         0.04551000         1.00800000
  6890 lmp_009                 1 R01      A1aea         0         0.04551000         1.00800000
  6891 lmp_007                 1 R01      A1aeb         0         0.00531000        12.01000000
  6892 lmp_009                 1 R01      A1aec         0         0.03971000         1.00800000
  6893 lmp_004                 1 R01      A1aed         0         0.05571000        12.01000000
  6894 lmp_009                 1 R01      A1aee         0         0.01041000         1.00800000
  6895 lmp_004                 1 R01      A1aef         0        -0.21059000        12.01000000
  6896 lmp_009                 1 R01      A1af0         0         0.05311000         1.00800000
  6897 lmp_009                 1 R01      A1af1         0         0.05311000         1.00800000
  6898 lmp_005                 1 R01      A1af2         0        -0.04569000        12.01000000
  6899 lmp_005                 1 R01      A1af3         0        -0.20379000        12.01000000
  6900 lmp_008                 1 R01      A1af4         0         0.15591000         1.00800000

[ pairs ]
;  ai    aj   funct
     1       7    1
     1       8    1
     1       9    1
     1      11    1
     1      31    1
     1      33    1
     1      35    1
     2       6    1
     2      10    1
     2      34    1
     3       6    1
     3      10    1
     3      34    1
     4       6    1
     4      10    1
     4      34    1
     5      12    1
     5      30    1
     5      32    1
     5      36    1
     5      37    1
     5      68    1
     6      11    1
     6      31    1
     6      33    1
     6      35    1
     7      10    1
     7      34    1
     8      10    1
     8      34    1
     9      10    1
     9      34    1
    10      13    1
    10      14    1
    10      17    1
    10      35    1
    10      68    1
    11      15    1
    11      30    1
    11      32    1
    11      35    1
    11      67    1
    11      69    1
    12      16    1
    12      17    1
    12      25    1
    12      31    1
    12      34    1
    12      68    1
    13      15    1
    13      30    1
    13      33    1
    14      18    1
    14      19    1
    14      23    1
    14      26    1
    14      27    1
    14      32    1
    14      33    1
    15      20    1
    15      21    1
    15      24    1
    15      28    1
    15      29    1
    15      31    1
    15    6815    1
    16      18    1
    16      19    1
    16      23    1
    16      26    1
    16      27    1
    16      30    1
    17      22    1
    17      23    1
    17      26    1
    17      28    1
    17      29    1
    17      32    1
    17    6816    1
    18      20    1
    18      21    1
    18      25    1
    18      27    1
    18      31    1
    19      24    1
    19      26    1
    19      31    1
    19    6815    1
    19    6817    1
    20      22    1
    20      23    1
    20      25    1
    20      28    1
    20      29    1
    20      30    1
    20    6816    1
    21      26    1
    21      28    1
    21      29    1
    21      30    1
    21    6808    1
    21    6810    1
    21    6818    1
    22      24    1
    22      25    1
    22      27    1
    22    6815    1
    22    6817    1
    23      28    1
    23      29    1
    23    6809    1
    23    6811    1
    23    6817    1
    24      26    1
    24      27    1
    24    6810    1
    24    6816    1
    25      30    1
    25    6810    1
    25    6816    1
    26      28    1
    26      29    1
    26    6815    1
    27      30    1
    27    6815    1
    27    6816    1
    31      33    1
    31      34    1
    33      36    1
    33      37    1
    33      40    1
    34      38    1
    34      67    1
    34      69    1
    35      39    1
    35      40    1
    35      62    1
    35      68    1
    36      38    1
    36      67    1
    37      41    1
    37      42    1
    37      60    1
    37      63    1
    37      64    1
    37      69    1
    38      43    1
    38      44    1
    38      47    1
    38      61    1
    38      65    1
    38      66    1
    38      68    1
    39      41    1
    39      42    1
    39      60    1
    39      63    1
    39      64    1
    39      67    1
    40      45    1
    40      46    1
    40      60    1
    40      63    1
    40      65    1
    40      66    1
    40      69    1
    41      43    1
    41      44    1
    41      62    1
    41      64    1
    41      68    1
    42      47    1
    42      55    1
    42      61    1
    42      63    1
    42      68    1
    43      45    1
    43      46    1
    43      60    1
    43      62    1
    43      65    1
    43      66    1
    43      67    1
    44      48    1
    44      54    1
    44      56    1
    44      63    1
    44      65    1
    44      66    1
    44      67    1
    45      47    1
    45      55    1
    45      61    1
    45      62    1
    45      64    1
    46      49    1
    46      53    1
    46      57    1
    46      58    1
    46      59    1
    46      61    1
    46      62    1
    46      64    1
    46     920    1
    47      50    1
    47      51    1
    47      52    1
    47      54    1
    47      56    1
    47      63    1
    47      64    1
    47     918    1
    48      55    1
    48      61    1
    48      62    1
    48     916    1
    48     919    1
    48     920    1
    49      54    1
    49      60    1
    49     918    1
    50      53    1
    51      53    1
    52      53    1
    53      56    1
    53      60    1
    53     914    1
    53     917    1
    53     921    1
    53     922    1
    53     924    1
    54      57    1
    54      58    1
    54      59    1
    54     912    1
    54     916    1
    54     919    1
    54     923    1
    54     924    1
    55      60    1
    55     918    1
    55     921    1
    55     922    1
    56     920    1
    60      65    1
    60      66    1
    61      63    1
    61      64    1
    62      67    1
    63      65    1
    63      66    1
    64      67    1
    70      76    1
    70      77    1
    70      78    1
    70      80    1
    70     100    1
    70     102    1
    70     104    1
    71      75    1
    71      79    1
    71     103    1
    72      75    1
    72      79    1
    72     103    1
    73      75    1
    73      79    1
    73     103    1
    74      81    1
    74      99    1
    74     101    1
    74     105    1
    74     106    1
    74     137    1
    75      80    1
    75     100    1
    75     102    1
    75     104    1
    76      79    1
    76     103    1
    77      79    1
    77     103    1
    78      79    1
    78     103    1
    79      82    1
    79      83    1
    79      86    1
    79     104    1
    79     137    1
    80      84    1
    80      99    1
    80     101    1
    80     104    1
    80     136    1
    80     138    1
    81      85    1
    81      86    1
    81      94    1
    81     100    1
    81     103    1
    81     137    1
    82      84    1
    82      99    1
    82     102    1
    83      87    1
    83      88    1
    83      92    1
    83      95    1
    83      96    1
    83     101    1
    83     102    1
    84      89    1
    84      90    1
    84      93    1
    84      97    1
    84      98    1
    84     100    1
    84    5712    1
    85      87    1
    85      88    1
    85      92    1
    85      95    1
    85      96    1
    85      99    1
    86      91    1
    86      92    1
    86      95    1
    86      97    1
    86      98    1
    86     101    1
    86    5711    1
    87      89    1
    87      90    1
    87      94    1
    87      96    1
    87     100    1
    88      93    1
    88      95    1
    88     100    1
    88    5706    1
    88    5712    1
    89      91    1
    89      92    1
    89      94    1
    89      97    1
    89      98    1
    89      99    1
    89    5711    1
    90      95    1
    90      97    1
    90      98    1
    90      99    1
    90    5705    1
    90    5707    1
    90    5713    1
    91      93    1
    91      94    1
    91      96    1
    91    5706    1
    91    5712    1
    92      97    1
    92      98    1
    92    5704    1
    92    5706    1
    92    5714    1
    93      95    1
    93      96    1
    93    5711    1
    93    5713    1
    94      99    1
    94    5711    1
    94    5713    1
    95      97    1
    95      98    1
    95    5712    1
    96      99    1
    96    5711    1
    96    5712    1
   100     102    1
   100     103    1
   102     105    1
   102     106    1
   102     109    1
   103     107    1
   103     136    1
   103     138    1
   104     108    1
   104     109    1
   104     131    1
   104     137    1
   105     107    1
   105     136    1
   106     110    1
   106     111    1
   106     129    1
   106     132    1
   106     133    1
   106     138    1
   107     112    1
   107     113    1
   107     116    1
   107     130    1
   107     134    1
   107     135    1
   107     137    1
   108     110    1
   108     111    1
   108     129    1
   108     132    1
   108     133    1
   108     136    1
   109     114    1
   109     115    1
   109     129    1
   109     132    1
   109     134    1
   109     135    1
   109     138    1
   110     112    1
   110     113    1
   110     131    1
   110     133    1
   110     137    1
   111     116    1
   111     124    1
   111     130    1
   111     132    1
   111     137    1
   112     114    1
   112     115    1
   112     129    1
   112     131    1
   112     134    1
   112     135    1
   112     136    1
   113     117    1
   113     123    1
   113     125    1
   113     132    1
   113     134    1
   113     135    1
   113     136    1
   114     116    1
   114     124    1
   114     130    1
   114     131    1
   114     133    1
   115     118    1
   115     122    1
   115     126    1
   115     127    1
   115     128    1
   115     130    1
   115     131    1
   115     133    1
   116     119    1
   116     120    1
   116     121    1
   116     123    1
   116     125    1
   116     132    1
   116     133    1
   117     124    1
   117     130    1
   117     131    1
   118     123    1
   118     129    1
   119     122    1
   120     122    1
   121     122    1
   122     125    1
   122     129    1
   123     126    1
   123     127    1
   123     128    1
   124     129    1
   129     134    1
   129     135    1
   130     132    1
   130     133    1
   131     136    1
   132     134    1
   132     135    1
   133     136    1
   139     145    1
   139     146    1
   139     147    1
   139     149    1
   139     169    1
   139     171    1
   139     173    1
   140     144    1
   140     148    1
   140     172    1
   141     144    1
   141     148    1
   141     172    1
   142     144    1
   142     148    1
   142     172    1
   143     150    1
   143     168    1
   143     170    1
   143     174    1
   143     175    1
   143     206    1
   144     149    1
   144     169    1
   144     171    1
   144     173    1
   145     148    1
   145     172    1
   146     148    1
   146     172    1
   147     148    1
   147     172    1
   148     151    1
   148     152    1
   148     155    1
   148     173    1
   148     206    1
   149     153    1
   149     168    1
   149     170    1
   149     173    1
   149     205    1
   149     207    1
   150     154    1
   150     155    1
   150     163    1
   150     169    1
   150     172    1
   150     206    1
   151     153    1
   151     168    1
   151     171    1
   152     156    1
   152     157    1
   152     161    1
   152     164    1
   152     165    1
   152     170    1
   152     171    1
   153     158    1
   153     159    1
   153     162    1
   153     166    1
   153     167    1
   153     169    1
   153     882    1
   154     156    1
   154     157    1
   154     161    1
   154     164    1
   154     165    1
   154     168    1
   155     160    1
   155     161    1
   155     164    1
   155     166    1
   155     167    1
   155     170    1
   155     881    1
   156     158    1
   156     159    1
   156     163    1
   156     165    1
   156     169    1
   157     162    1
   157     164    1
   157     169    1
   157     876    1
   157     882    1
   158     160    1
   158     161    1
   158     163    1
   158     166    1
   158     167    1
   158     168    1
   158     881    1
   159     164    1
   159     166    1
   159     167    1
   159     168    1
   159     875    1
   159     877    1
   159     883    1
   160     162    1
   160     163    1
   160     165    1
   160     876    1
   160     882    1
   161     166    1
   161     167    1
   161     874    1
   161     876    1
   161     884    1
   162     164    1
   162     165    1
   162     881    1
   162     883    1
   163     168    1
   163     881    1
   163     883    1
   164     166    1
   164     167    1
   164     882    1
   165     168    1
   165     881    1
   165     882    1
   169     171    1
   169     172    1
   171     174    1
   171     175    1
   171     178    1
   172     176    1
   172     205    1
   172     207    1
   173     177    1
   173     178    1
   173     200    1
   173     206    1
   174     176    1
   174     205    1
   175     179    1
   175     180    1
   175     198    1
   175     201    1
   175     202    1
   175     207    1
   176     181    1
   176     182    1
   176     185    1
   176     199    1
   176     203    1
   176     204    1
   176     206    1
   177     179    1
   177     180    1
   177     198    1
   177     201    1
   177     202    1
   177     205    1
   178     183    1
   178     184    1
   178     198    1
   178     201    1
   178     203    1
   178     204    1
   178     207    1
   179     181    1
   179     182    1
   179     200    1
   179     202    1
   179     206    1
   180     185    1
   180     193    1
   180     199    1
   180     201    1
   180     206    1
   181     183    1
   181     184    1
   181     198    1
   181     200    1
   181     203    1
   181     204    1
   181     205    1
   182     186    1
   182     192    1
   182     194    1
   182     201    1
   182     203    1
   182     204    1
   182     205    1
   183     185    1
   183     193    1
   183     199    1
   183     200    1
   183     202    1
   184     187    1
   184     191    1
   184     195    1
   184     196    1
   184     197    1
   184     199    1
   184     200    1
   184     202    1
   184    2850    1
   185     188    1
   185     189    1
   185     190    1
   185     192    1
   185     194    1
   185     201    1
   185     202    1
   185    2852    1
   186     193    1
   186     199    1
   186     200    1
   186    2850    1
   186    2853    1
   186    2854    1
   187     192    1
   187     198    1
   187    2852    1
   188     191    1
   189     191    1
   190     191    1
   191     194    1
   191     198    1
   191    2844    1
   191    2848    1
   191    2851    1
   191    2855    1
   191    2856    1
   192     195    1
   192     196    1
   192     197    1
   192    2846    1
   192    2849    1
   192    2853    1
   192    2854    1
   192    2856    1
   193     198    1
   193    2848    1
   193    2851    1
   193    2852    1
   194    2850    1
   198     203    1
   198     204    1
   199     201    1
   199     202    1
   200     205    1
   201     203    1
   201     204    1
   202     205    1
   208     214    1
   208     215    1
   208     216    1
   208     218    1
   208     238    1
   208     240    1
   208     242    1
   209     213    1
   209     217    1
   209     241    1
   210     213    1
   210     217    1
   210     241    1
   211     213    1
   211     217    1
   211     241    1
   212     219    1
   212     237    1
   212     239    1
   212     243    1
   212     244    1
   212     275    1
   213     218    1
   213     238    1
   213     240    1
   213     242    1
   214     217    1
   214     241    1
   215     217    1
   215     241    1
   216     217    1
   216     241    1
   217     220    1
   217     221    1
   217     224    1
   217     242    1
   217     275    1
   218     222    1
   218     237    1
   218     239    1
   218     242    1
   218     274    1
   218     276    1
   219     223    1
   219     224    1
   219     232    1
   219     238    1
   219     241    1
   219     275    1
   220     222    1
   220     237    1
   220     240    1
   221     225    1
   221     226    1
   221     230    1
   221     233    1
   221     234    1
   221     239    1
   221     240    1
   222     227    1
   222     228    1
   222     231    1
   222     235    1
   222     236    1
   222     238    1
   222     606    1
   223     225    1
   223     226    1
   223     230    1
   223     233    1
   223     234    1
   223     237    1
   224     229    1
   224     230    1
   224     233    1
   224     235    1
   224     236    1
   224     239    1
   224     605    1
   225     227    1
   225     228    1
   225     232    1
   225     234    1
   225     238    1
   226     231    1
   226     233    1
   226     238    1
   226     600    1
   226     606    1
   227     229    1
   227     230    1
   227     232    1
   227     235    1
   227     236    1
   227     237    1
   227     605    1
   228     233    1
   228     235    1
   228     236    1
   228     237    1
   228     599    1
   228     601    1
   228     607    1
   229     231    1
   229     232    1
   229     234    1
   229     600    1
   229     606    1
   230     235    1
   230     236    1
   230     598    1
   230     600    1
   230     608    1
   231     233    1
   231     234    1
   231     605    1
   231     607    1
   232     237    1
   232     605    1
   232     607    1
   233     235    1
   233     236    1
   233     606    1
   234     237    1
   234     605    1
   234     606    1
   238     240    1
   238     241    1
   240     243    1
   240     244    1
   240     247    1
   241     245    1
   241     274    1
   241     276    1
   242     246    1
   242     247    1
   242     269    1
   242     275    1
   243     245    1
   243     274    1
   244     248    1
   244     249    1
   244     267    1
   244     270    1
   244     271    1
   244     276    1
   245     250    1
   245     251    1
   245     254    1
   245     268    1
   245     272    1
   245     273    1
   245     275    1
   246     248    1
   246     249    1
   246     267    1
   246     270    1
   246     271    1
   246     274    1
   247     252    1
   247     253    1
   247     267    1
   247     270    1
   247     272    1
   247     273    1
   247     276    1
   248     250    1
   248     251    1
   248     269    1
   248     271    1
   248     275    1
   249     254    1
   249     262    1
   249     268    1
   249     270    1
   249     275    1
   250     252    1
   250     253    1
   250     267    1
   250     269    1
   250     272    1
   250     273    1
   250     274    1
   251     255    1
   251     261    1
   251     263    1
   251     270    1
   251     272    1
   251     273    1
   251     274    1
   252     254    1
   252     262    1
   252     268    1
   252     269    1
   252     271    1
   253     256    1
   253     260    1
   253     264    1
   253     265    1
   253     266    1
   253     268    1
   253     269    1
   253     271    1
   253    6645    1
   254     257    1
   254     258    1
   254     259    1
   254     261    1
   254     263    1
   254     270    1
   254     271    1
   254    6647    1
   255     262    1
   255     268    1
   255     269    1
   255    6645    1
   255    6648    1
   255    6649    1
   256     261    1
   256     267    1
   256    6647    1
   257     260    1
   258     260    1
   259     260    1
   260     263    1
   260     267    1
   260    6639    1
   260    6643    1
   260    6646    1
   260    6650    1
   260    6651    1
   261     264    1
   261     265    1
   261     266    1
   261    6641    1
   261    6644    1
   261    6648    1
   261    6649    1
   261    6651    1
   262     267    1
   262    6643    1
   262    6646    1
   262    6647    1
   263    6645    1
   267     272    1
   267     273    1
   268     270    1
   268     271    1
   269     274    1
   270     272    1
   270     273    1
   271     274    1
   277     283    1
   277     284    1
   277     285    1
   277     287    1
   277     307    1
   277     309    1
   277     311    1
   278     282    1
   278     286    1
   278     310    1
   279     282    1
   279     286    1
   279     310    1
   280     282    1
   280     286    1
   280     310    1
   281     288    1
   281     306    1
   281     308    1
   281     312    1
   281     313    1
   281     344    1
   282     287    1
   282     307    1
   282     309    1
   282     311    1
   283     286    1
   283     310    1
   284     286    1
   284     310    1
   285     286    1
   285     310    1
   286     289    1
   286     290    1
   286     293    1
   286     311    1
   286     344    1
   287     291    1
   287     306    1
   287     308    1
   287     311    1
   287     343    1
   287     345    1
   288     292    1
   288     293    1
   288     301    1
   288     307    1
   288     310    1
   288     344    1
   289     291    1
   289     306    1
   289     309    1
   290     294    1
   290     295    1
   290     299    1
   290     302    1
   290     303    1
   290     308    1
   290     309    1
   291     296    1
   291     297    1
   291     300    1
   291     304    1
   291     305    1
   291     307    1
   291    5642    1
   292     294    1
   292     295    1
   292     299    1
   292     302    1
   292     303    1
   292     306    1
   293     298    1
   293     299    1
   293     302    1
   293     304    1
   293     305    1
   293     308    1
   293    5643    1
   294     296    1
   294     297    1
   294     301    1
   294     303    1
   294     307    1
   295     300    1
   295     302    1
   295     307    1
   295    5642    1
   295    5644    1
   296     298    1
   296     299    1
   296     301    1
   296     304    1
   296     305    1
   296     306    1
   296    5643    1
   297     302    1
   297     304    1
   297     305    1
   297     306    1
   297    5635    1
   297    5637    1
   297    5645    1
   298     300    1
   298     301    1
   298     303    1
   298    5642    1
   298    5644    1
   299     304    1
   299     305    1
   299    5636    1
   299    5638    1
   299    5644    1
   300     302    1
   300     303    1
   300    5637    1
   300    5643    1
   301     306    1
   301    5637    1
   301    5643    1
   302     304    1
   302     305    1
   302    5642    1
   303     306    1
   303    5642    1
   303    5643    1
   307     309    1
   307     310    1
   309     312    1
   309     313    1
   309     316    1
   310     314    1
   310     343    1
   310     345    1
   311     315    1
   311     316    1
   311     338    1
   311     344    1
   312     314    1
   312     343    1
   313     317    1
   313     318    1
   313     336    1
   313     339    1
   313     340    1
   313     345    1
   314     319    1
   314     320    1
   314     323    1
   314     337    1
   314     341    1
   314     342    1
   314     344    1
   315     317    1
   315     318    1
   315     336    1
   315     339    1
   315     340    1
   315     343    1
   316     321    1
   316     322    1
   316     336    1
   316     339    1
   316     341    1
   316     342    1
   316     345    1
   317     319    1
   317     320    1
   317     338    1
   317     340    1
   317     344    1
   318     323    1
   318     331    1
   318     337    1
   318     339    1
   318     344    1
   319     321    1
   319     322    1
   319     336    1
   319     338    1
   319     341    1
   319     342    1
   319     343    1
   320     324    1
   320     330    1
   320     332    1
   320     339    1
   320     341    1
   320     342    1
   320     343    1
   321     323    1
   321     331    1
   321     337    1
   321     338    1
   321     340    1
   322     325    1
   322     329    1
   322     333    1
   322     334    1
   322     335    1
   322     337    1
   322     338    1
   322     340    1
   322    4368    1
   323     326    1
   323     327    1
   323     328    1
   323     330    1
   323     332    1
   323     339    1
   323     340    1
   323    4370    1
   324     331    1
   324     337    1
   324     338    1
   324    4368    1
   324    4371    1
   324    4372    1
   325     330    1
   325     336    1
   325    4370    1
   326     329    1
   327     329    1
   328     329    1
   329     332    1
   329     336    1
   329    4362    1
   329    4366    1
   329    4369    1
   329    4373    1
   329    4374    1
   330     333    1
   330     334    1
   330     335    1
   330    4364    1
   330    4367    1
   330    4371    1
   330    4372    1
   330    4374    1
   331     336    1
   331    4366    1
   331    4369    1
   331    4370    1
   332    4368    1
   336     341    1
   336     342    1
   337     339    1
   337     340    1
   338     343    1
   339     341    1
   339     342    1
   340     343    1
   346     352    1
   346     353    1
   346     354    1
   346     356    1
   346     376    1
   346     378    1
   346     380    1
   347     351    1
   347     355    1
   347     379    1
   348     351    1
   348     355    1
   348     379    1
   349     351    1
   349     355    1
   349     379    1
   350     357    1
   350     375    1
   350     377    1
   350     381    1
   350     382    1
   350     413    1
   351     356    1
   351     376    1
   351     378    1
   351     380    1
   352     355    1
   352     379    1
   353     355    1
   353     379    1
   354     355    1
   354     379    1
   355     358    1
   355     359    1
   355     362    1
   355     380    1
   355     413    1
   356     360    1
   356     375    1
   356     377    1
   356     380    1
   356     412    1
   356     414    1
   357     361    1
   357     362    1
   357     370    1
   357     376    1
   357     379    1
   357     413    1
   358     360    1
   358     375    1
   358     378    1
   359     363    1
   359     364    1
   359     368    1
   359     371    1
   359     372    1
   359     377    1
   359     378    1
   360     365    1
   360     366    1
   360     369    1
   360     373    1
   360     374    1
   360     376    1
   360    2675    1
   361     363    1
   361     364    1
   361     368    1
   361     371    1
   361     372    1
   361     375    1
   362     367    1
   362     368    1
   362     371    1
   362     373    1
   362     374    1
   362     377    1
   362    2676    1
   363     365    1
   363     366    1
   363     370    1
   363     372    1
   363     376    1
   364     369    1
   364     371    1
   364     376    1
   364    2675    1
   364    2677    1
   365     367    1
   365     368    1
   365     370    1
   365     373    1
   365     374    1
   365     375    1
   365    2676    1
   366     371    1
   366     373    1
   366     374    1
   366     375    1
   366    2668    1
   366    2670    1
   366    2678    1
   367     369    1
   367     370    1
   367     372    1
   367    2675    1
   367    2677    1
   368     373    1
   368     374    1
   368    2669    1
   368    2671    1
   368    2677    1
   369     371    1
   369     372    1
   369    2670    1
   369    2676    1
   370     375    1
   370    2670    1
   370    2676    1
   371     373    1
   371     374    1
   371    2675    1
   372     375    1
   372    2675    1
   372    2676    1
   376     378    1
   376     379    1
   378     381    1
   378     382    1
   378     385    1
   379     383    1
   379     412    1
   379     414    1
   380     384    1
   380     385    1
   380     407    1
   380     413    1
   381     383    1
   381     412    1
   382     386    1
   382     387    1
   382     405    1
   382     408    1
   382     409    1
   382     414    1
   383     388    1
   383     389    1
   383     392    1
   383     406    1
   383     410    1
   383     411    1
   383     413    1
   384     386    1
   384     387    1
   384     405    1
   384     408    1
   384     409    1
   384     412    1
   385     390    1
   385     391    1
   385     405    1
   385     408    1
   385     410    1
   385     411    1
   385     414    1
   386     388    1
   386     389    1
   386     407    1
   386     409    1
   386     413    1
   387     392    1
   387     400    1
   387     406    1
   387     408    1
   387     413    1
   388     390    1
   388     391    1
   388     405    1
   388     407    1
   388     410    1
   388     411    1
   388     412    1
   389     393    1
   389     399    1
   389     401    1
   389     408    1
   389     410    1
   389     411    1
   389     412    1
   390     392    1
   390     400    1
   390     406    1
   390     407    1
   390     409    1
   391     394    1
   391     398    1
   391     402    1
   391     403    1
   391     404    1
   391     406    1
   391     407    1
   391     409    1
   392     395    1
   392     396    1
   392     397    1
   392     399    1
   392     401    1
   392     408    1
   392     409    1
   393     400    1
   393     406    1
   393     407    1
   394     399    1
   394     405    1
   395     398    1
   396     398    1
   397     398    1
   398     401    1
   398     405    1
   399     402    1
   399     403    1
   399     404    1
   400     405    1
   405     410    1
   405     411    1
   406     408    1
   406     409    1
   407     412    1
   408     410    1
   408     411    1
   409     412    1
   415     421    1
   415     422    1
   415     423    1
   415     425    1
   415     445    1
   415     447    1
   415     449    1
   416     420    1
   416     424    1
   416     448    1
   417     420    1
   417     424    1
   417     448    1
   418     420    1
   418     424    1
   418     448    1
   419     426    1
   419     444    1
   419     446    1
   419     450    1
   419     451    1
   419     482    1
   420     425    1
   420     445    1
   420     447    1
   420     449    1
   421     424    1
   421     448    1
   422     424    1
   422     448    1
   423     424    1
   423     448    1
   424     427    1
   424     428    1
   424     431    1
   424     449    1
   424     482    1
   425     429    1
   425     444    1
   425     446    1
   425     449    1
   425     481    1
   425     483    1
   426     430    1
   426     431    1
   426     439    1
   426     445    1
   426     448    1
   426     482    1
   427     429    1
   427     444    1
   427     447    1
   428     432    1
   428     433    1
   428     437    1
   428     440    1
   428     441    1
   428     446    1
   428     447    1
   429     434    1
   429     435    1
   429     438    1
   429     442    1
   429     443    1
   429     445    1
   429    2745    1
   430     432    1
   430     433    1
   430     437    1
   430     440    1
   430     441    1
   430     444    1
   431     436    1
   431     437    1
   431     440    1
   431     442    1
   431     443    1
   431     446    1
   431    2744    1
   432     434    1
   432     435    1
   432     439    1
   432     441    1
   432     445    1
   433     438    1
   433     440    1
   433     445    1
   433    2739    1
   433    2745    1
   434     436    1
   434     437    1
   434     439    1
   434     442    1
   434     443    1
   434     444    1
   434    2744    1
   435     440    1
   435     442    1
   435     443    1
   435     444    1
   435    2738    1
   435    2740    1
   435    2746    1
   436     438    1
   436     439    1
   436     441    1
   436    2739    1
   436    2745    1
   437     442    1
   437     443    1
   437    2737    1
   437    2739    1
   437    2747    1
   438     440    1
   438     441    1
   438    2744    1
   438    2746    1
   439     444    1
   439    2744    1
   439    2746    1
   440     442    1
   440     443    1
   440    2745    1
   441     444    1
   441    2744    1
   441    2745    1
   445     447    1
   445     448    1
   447     450    1
   447     451    1
   447     454    1
   448     452    1
   448     481    1
   448     483    1
   449     453    1
   449     454    1
   449     476    1
   449     482    1
   450     452    1
   450     481    1
   451     455    1
   451     456    1
   451     474    1
   451     477    1
   451     478    1
   451     483    1
   452     457    1
   452     458    1
   452     461    1
   452     475    1
   452     479    1
   452     480    1
   452     482    1
   453     455    1
   453     456    1
   453     474    1
   453     477    1
   453     478    1
   453     481    1
   454     459    1
   454     460    1
   454     474    1
   454     477    1
   454     479    1
   454     480    1
   454     483    1
   455     457    1
   455     458    1
   455     476    1
   455     478    1
   455     482    1
   456     461    1
   456     469    1
   456     475    1
   456     477    1
   456     482    1
   457     459    1
   457     460    1
   457     474    1
   457     476    1
   457     479    1
   457     480    1
   457     481    1
   458     462    1
   458     468    1
   458     470    1
   458     477    1
   458     479    1
   458     480    1
   458     481    1
   459     461    1
   459     469    1
   459     475    1
   459     476    1
   459     478    1
   460     463    1
   460     467    1
   460     471    1
   460     472    1
   460     473    1
   460     475    1
   460     476    1
   460     478    1
   460    2574    1
   461     464    1
   461     465    1
   461     466    1
   461     468    1
   461     470    1
   461     477    1
   461     478    1
   461    2576    1
   462     469    1
   462     475    1
   462     476    1
   462    2574    1
   462    2577    1
   462    2578    1
   463     468    1
   463     474    1
   463    2576    1
   464     467    1
   465     467    1
   466     467    1
   467     470    1
   467     474    1
   467    2568    1
   467    2572    1
   467    2575    1
   467    2579    1
   467    2580    1
   468     471    1
   468     472    1
   468     473    1
   468    2570    1
   468    2573    1
   468    2577    1
   468    2578    1
   468    2580    1
   469     474    1
   469    2572    1
   469    2575    1
   469    2576    1
   470    2574    1
   474     479    1
   474     480    1
   475     477    1
   475     478    1
   476     481    1
   477     479    1
   477     480    1
   478     481    1
   484     490    1
   484     491    1
   484     492    1
   484     494    1
   484     514    1
   484     516    1
   484     518    1
   485     489    1
   485     493    1
   485     517    1
   486     489    1
   486     493    1
   486     517    1
   487     489    1
   487     493    1
   487     517    1
   488     495    1
   488     513    1
   488     515    1
   488     519    1
   488     520    1
   488     551    1
   489     494    1
   489     514    1
   489     516    1
   489     518    1
   490     493    1
   490     517    1
   491     493    1
   491     517    1
   492     493    1
   492     517    1
   493     496    1
   493     497    1
   493     500    1
   493     518    1
   493     551    1
   494     498    1
   494     513    1
   494     515    1
   494     518    1
   494     550    1
   494     552    1
   495     499    1
   495     500    1
   495     508    1
   495     514    1
   495     517    1
   495     551    1
   496     498    1
   496     513    1
   496     516    1
   497     501    1
   497     502    1
   497     506    1
   497     509    1
   497     510    1
   497     515    1
   497     516    1
   498     503    1
   498     504    1
   498     507    1
   498     511    1
   498     512    1
   498     514    1
   498    6677    1
   499     501    1
   499     502    1
   499     506    1
   499     509    1
   499     510    1
   499     513    1
   500     505    1
   500     506    1
   500     509    1
   500     511    1
   500     512    1
   500     515    1
   500    6678    1
   501     503    1
   501     504    1
   501     508    1
   501     510    1
   501     514    1
   502     507    1
   502     509    1
   502     514    1
   502    6677    1
   502    6679    1
   503     505    1
   503     506    1
   503     508    1
   503     511    1
   503     512    1
   503     513    1
   503    6678    1
   504     509    1
   504     511    1
   504     512    1
   504     513    1
   504    6670    1
   504    6672    1
   504    6680    1
   505     507    1
   505     508    1
   505     510    1
   505    6677    1
   505    6679    1
   506     511    1
   506     512    1
   506    6671    1
   506    6673    1
   506    6679    1
   507     509    1
   507     510    1
   507    6672    1
   507    6678    1
   508     513    1
   508    6672    1
   508    6678    1
   509     511    1
   509     512    1
   509    6677    1
   510     513    1
   510    6677    1
   510    6678    1
   514     516    1
   514     517    1
   516     519    1
   516     520    1
   516     523    1
   517     521    1
   517     550    1
   517     552    1
   518     522    1
   518     523    1
   518     545    1
   518     551    1
   519     521    1
   519     550    1
   520     524    1
   520     525    1
   520     543    1
   520     546    1
   520     547    1
   520     552    1
   521     526    1
   521     527    1
   521     530    1
   521     544    1
   521     548    1
   521     549    1
   521     551    1
   522     524    1
   522     525    1
   522     543    1
   522     546    1
   522     547    1
   522     550    1
   523     528    1
   523     529    1
   523     543    1
   523     546    1
   523     548    1
   523     549    1
   523     552    1
   524     526    1
   524     527    1
   524     545    1
   524     547    1
   524     551    1
   525     530    1
   525     538    1
   525     544    1
   525     546    1
   525     551    1
   526     528    1
   526     529    1
   526     543    1
   526     545    1
   526     548    1
   526     549    1
   526     550    1
   527     531    1
   527     537    1
   527     539    1
   527     546    1
   527     548    1
   527     549    1
   527     550    1
   528     530    1
   528     538    1
   528     544    1
   528     545    1
   528     547    1
   529     532    1
   529     536    1
   529     540    1
   529     541    1
   529     542    1
   529     544    1
   529     545    1
   529     547    1
   529    6369    1
   530     533    1
   530     534    1
   530     535    1
   530     537    1
   530     539    1
   530     546    1
   530     547    1
   530    6371    1
   531     538    1
   531     544    1
   531     545    1
   531    6369    1
   531    6372    1
   531    6373    1
   532     537    1
   532     543    1
   532    6371    1
   533     536    1
   534     536    1
   535     536    1
   536     539    1
   536     543    1
   536    6363    1
   536    6367    1
   536    6370    1
   536    6374    1
   536    6375    1
   537     540    1
   537     541    1
   537     542    1
   537    6365    1
   537    6368    1
   537    6372    1
   537    6373    1
   537    6375    1
   538     543    1
   538    6367    1
   538    6370    1
   538    6371    1
   539    6369    1
   543     548    1
   543     549    1
   544     546    1
   544     547    1
   545     550    1
   546     548    1
   546     549    1
   547     550    1
   553     559    1
   553     560    1
   553     561    1
   553     563    1
   553     583    1
   553     585    1
   553     587    1
   554     558    1
   554     562    1
   554     586    1
   555     558    1
   555     562    1
   555     586    1
   556     558    1
   556     562    1
   556     586    1
   557     564    1
   557     582    1
   557     584    1
   557     588    1
   557     589    1
   557     620    1
   558     563    1
   558     583    1
   558     585    1
   558     587    1
   559     562    1
   559     586    1
   560     562    1
   560     586    1
   561     562    1
   561     586    1
   562     565    1
   562     566    1
   562     569    1
   562     587    1
   562     620    1
   563     567    1
   563     582    1
   563     584    1
   563     587    1
   563     619    1
   563     621    1
   564     568    1
   564     569    1
   564     577    1
   564     583    1
   564     586    1
   564     620    1
   565     567    1
   565     582    1
   565     585    1
   566     570    1
   566     571    1
   566     575    1
   566     578    1
   566     579    1
   566     584    1
   566     585    1
   567     572    1
   567     573    1
   567     576    1
   567     580    1
   567     581    1
   567     583    1
   567    5781    1
   568     570    1
   568     571    1
   568     575    1
   568     578    1
   568     579    1
   568     582    1
   569     574    1
   569     575    1
   569     578    1
   569     580    1
   569     581    1
   569     584    1
   569    5780    1
   570     572    1
   570     573    1
   570     577    1
   570     579    1
   570     583    1
   571     576    1
   571     578    1
   571     583    1
   571    5775    1
   571    5781    1
   572     574    1
   572     575    1
   572     577    1
   572     580    1
   572     581    1
   572     582    1
   572    5780    1
   573     578    1
   573     580    1
   573     581    1
   573     582    1
   573    5774    1
   573    5776    1
   573    5782    1
   574     576    1
   574     577    1
   574     579    1
   574    5775    1
   574    5781    1
   575     580    1
   575     581    1
   575    5773    1
   575    5775    1
   575    5783    1
   576     578    1
   576     579    1
   576    5780    1
   576    5782    1
   577     582    1
   577    5780    1
   577    5782    1
   578     580    1
   578     581    1
   578    5781    1
   579     582    1
   579    5780    1
   579    5781    1
   583     585    1
   583     586    1
   585     588    1
   585     589    1
   585     592    1
   586     590    1
   586     619    1
   586     621    1
   587     591    1
   587     592    1
   587     614    1
   587     620    1
   588     590    1
   588     619    1
   589     593    1
   589     594    1
   589     612    1
   589     615    1
   589     616    1
   589     621    1
   590     595    1
   590     596    1
   590     599    1
   590     613    1
   590     617    1
   590     618    1
   590     620    1
   591     593    1
   591     594    1
   591     612    1
   591     615    1
   591     616    1
   591     619    1
   592     597    1
   592     598    1
   592     612    1
   592     615    1
   592     617    1
   592     618    1
   592     621    1
   593     595    1
   593     596    1
   593     614    1
   593     616    1
   593     620    1
   594     599    1
   594     607    1
   594     613    1
   594     615    1
   594     620    1
   595     597    1
   595     598    1
   595     612    1
   595     614    1
   595     617    1
   595     618    1
   595     619    1
   596     600    1
   596     606    1
   596     608    1
   596     615    1
   596     617    1
   596     618    1
   596     619    1
   597     599    1
   597     607    1
   597     613    1
   597     614    1
   597     616    1
   598     601    1
   598     605    1
   598     609    1
   598     610    1
   598     611    1
   598     613    1
   598     614    1
   598     616    1
   599     602    1
   599     603    1
   599     604    1
   599     606    1
   599     608    1
   599     615    1
   599     616    1
   600     607    1
   600     613    1
   600     614    1
   601     606    1
   601     612    1
   602     605    1
   603     605    1
   604     605    1
   605     608    1
   605     612    1
   606     609    1
   606     610    1
   606     611    1
   607     612    1
   612     617    1
   612     618    1
   613     615    1
   613     616    1
   614     619    1
   615     617    1
   615     618    1
   616     619    1
   622     628    1
   622     629    1
   622     630    1
   622     632    1
   622     652    1
   622     654    1
   622     656    1
   623     627    1
   623     631    1
   623     655    1
   624     627    1
   624     631    1
   624     655    1
   625     627    1
   625     631    1
   625     655    1
   626     633    1
   626     651    1
   626     653    1
   626     657    1
   626     658    1
   626     689    1
   627     632    1
   627     652    1
   627     654    1
   627     656    1
   628     631    1
   628     655    1
   629     631    1
   629     655    1
   630     631    1
   630     655    1
   631     634    1
   631     635    1
   631     638    1
   631     656    1
   631     689    1
   632     636    1
   632     651    1
   632     653    1
   632     656    1
   632     688    1
   632     690    1
   633     637    1
   633     638    1
   633     646    1
   633     652    1
   633     655    1
   633     689    1
   634     636    1
   634     651    1
   634     654    1
   635     639    1
   635     640    1
   635     644    1
   635     647    1
   635     648    1
   635     653    1
   635     654    1
   636     641    1
   636     642    1
   636     645    1
   636     649    1
   636     650    1
   636     652    1
   636    2399    1
   637     639    1
   637     640    1
   637     644    1
   637     647    1
   637     648    1
   637     651    1
   638     643    1
   638     644    1
   638     647    1
   638     649    1
   638     650    1
   638     653    1
   638    2400    1
   639     641    1
   639     642    1
   639     646    1
   639     648    1
   639     652    1
   640     645    1
   640     647    1
   640     652    1
   640    2399    1
   640    2401    1
   641     643    1
   641     644    1
   641     646    1
   641     649    1
   641     650    1
   641     651    1
   641    2400    1
   642     647    1
   642     649    1
   642     650    1
   642     651    1
   642    2392    1
   642    2394    1
   642    2402    1
   643     645    1
   643     646    1
   643     648    1
   643    2399    1
   643    2401    1
   644     649    1
   644     650    1
   644    2393    1
   644    2395    1
   644    2401    1
   645     647    1
   645     648    1
   645    2394    1
   645    2400    1
   646     651    1
   646    2394    1
   646    2400    1
   647     649    1
   647     650    1
   647    2399    1
   648     651    1
   648    2399    1
   648    2400    1
   652     654    1
   652     655    1
   654     657    1
   654     658    1
   654     661    1
   655     659    1
   655     688    1
   655     690    1
   656     660    1
   656     661    1
   656     683    1
   656     689    1
   657     659    1
   657     688    1
   658     662    1
   658     663    1
   658     681    1
   658     684    1
   658     685    1
   658     690    1
   659     664    1
   659     665    1
   659     668    1
   659     682    1
   659     686    1
   659     687    1
   659     689    1
   660     662    1
   660     663    1
   660     681    1
   660     684    1
   660     685    1
   660     688    1
   661     666    1
   661     667    1
   661     681    1
   661     684    1
   661     686    1
   661     687    1
   661     690    1
   662     664    1
   662     665    1
   662     683    1
   662     685    1
   662     689    1
   663     668    1
   663     676    1
   663     682    1
   663     684    1
   663     689    1
   664     666    1
   664     667    1
   664     681    1
   664     683    1
   664     686    1
   664     687    1
   664     688    1
   665     669    1
   665     675    1
   665     677    1
   665     684    1
   665     686    1
   665     687    1
   665     688    1
   666     668    1
   666     676    1
   666     682    1
   666     683    1
   666     685    1
   667     670    1
   667     674    1
   667     678    1
   667     679    1
   667     680    1
   667     682    1
   667     683    1
   667     685    1
   667    2712    1
   668     671    1
   668     672    1
   668     673    1
   668     675    1
   668     677    1
   668     684    1
   668     685    1
   668    2714    1
   669     676    1
   669     682    1
   669     683    1
   669    2712    1
   669    2715    1
   669    2716    1
   670     675    1
   670     681    1
   670    2714    1
   671     674    1
   672     674    1
   673     674    1
   674     677    1
   674     681    1
   674    2706    1
   674    2710    1
   674    2713    1
   674    2717    1
   674    2718    1
   675     678    1
   675     679    1
   675     680    1
   675    2708    1
   675    2711    1
   675    2715    1
   675    2716    1
   675    2718    1
   676     681    1
   676    2710    1
   676    2713    1
   676    2714    1
   677    2712    1
   681     686    1
   681     687    1
   682     684    1
   682     685    1
   683     688    1
   684     686    1
   684     687    1
   685     688    1
   691     697    1
   691     698    1
   691     699    1
   691     701    1
   691     721    1
   691     723    1
   691     725    1
   692     696    1
   692     700    1
   692     724    1
   693     696    1
   693     700    1
   693     724    1
   694     696    1
   694     700    1
   694     724    1
   695     702    1
   695     720    1
   695     722    1
   695     726    1
   695     727    1
   695     758    1
   696     701    1
   696     721    1
   696     723    1
   696     725    1
   697     700    1
   697     724    1
   698     700    1
   698     724    1
   699     700    1
   699     724    1
   700     703    1
   700     704    1
   700     707    1
   700     725    1
   700     758    1
   701     705    1
   701     720    1
   701     722    1
   701     725    1
   701     757    1
   701     759    1
   702     706    1
   702     707    1
   702     715    1
   702     721    1
   702     724    1
   702     758    1
   703     705    1
   703     720    1
   703     723    1
   704     708    1
   704     709    1
   704     713    1
   704     716    1
   704     717    1
   704     722    1
   704     723    1
   705     710    1
   705     711    1
   705     714    1
   705     718    1
   705     719    1
   705     721    1
   705    4262    1
   706     708    1
   706     709    1
   706     713    1
   706     716    1
   706     717    1
   706     720    1
   707     712    1
   707     713    1
   707     716    1
   707     718    1
   707     719    1
   707     722    1
   707    4263    1
   708     710    1
   708     711    1
   708     715    1
   708     717    1
   708     721    1
   709     714    1
   709     716    1
   709     721    1
   709    4262    1
   709    4264    1
   710     712    1
   710     713    1
   710     715    1
   710     718    1
   710     719    1
   710     720    1
   710    4263    1
   711     716    1
   711     718    1
   711     719    1
   711     720    1
   711    4255    1
   711    4257    1
   711    4265    1
   712     714    1
   712     715    1
   712     717    1
   712    4262    1
   712    4264    1
   713     718    1
   713     719    1
   713    4256    1
   713    4258    1
   713    4264    1
   714     716    1
   714     717    1
   714    4257    1
   714    4263    1
   715     720    1
   715    4257    1
   715    4263    1
   716     718    1
   716     719    1
   716    4262    1
   717     720    1
   717    4262    1
   717    4263    1
   721     723    1
   721     724    1
   723     726    1
   723     727    1
   723     730    1
   724     728    1
   724     757    1
   724     759    1
   725     729    1
   725     730    1
   725     752    1
   725     758    1
   726     728    1
   726     757    1
   727     731    1
   727     732    1
   727     750    1
   727     753    1
   727     754    1
   727     759    1
   728     733    1
   728     734    1
   728     737    1
   728     751    1
   728     755    1
   728     756    1
   728     758    1
   729     731    1
   729     732    1
   729     750    1
   729     753    1
   729     754    1
   729     757    1
   730     735    1
   730     736    1
   730     750    1
   730     753    1
   730     755    1
   730     756    1
   730     759    1
   731     733    1
   731     734    1
   731     752    1
   731     754    1
   731     758    1
   732     737    1
   732     745    1
   732     751    1
   732     753    1
   732     758    1
   733     735    1
   733     736    1
   733     750    1
   733     752    1
   733     755    1
   733     756    1
   733     757    1
   734     738    1
   734     744    1
   734     746    1
   734     753    1
   734     755    1
   734     756    1
   734     757    1
   735     737    1
   735     745    1
   735     751    1
   735     752    1
   735     754    1
   736     739    1
   736     743    1
   736     747    1
   736     748    1
   736     749    1
   736     751    1
   736     752    1
   736     754    1
   736    2369    1
   737     740    1
   737     741    1
   737     742    1
   737     744    1
   737     746    1
   737     753    1
   737     754    1
   737    2367    1
   738     745    1
   738     751    1
   738     752    1
   738    2365    1
   738    2368    1
   738    2369    1
   739     744    1
   739     750    1
   739    2367    1
   740     743    1
   741     743    1
   742     743    1
   743     746    1
   743     750    1
   743    2363    1
   743    2366    1
   743    2370    1
   743    2371    1
   743    2373    1
   744     747    1
   744     748    1
   744     749    1
   744    2361    1
   744    2365    1
   744    2368    1
   744    2372    1
   744    2373    1
   745     750    1
   745    2367    1
   745    2370    1
   745    2371    1
   746    2369    1
   750     755    1
   750     756    1
   751     753    1
   751     754    1
   752     757    1
   753     755    1
   753     756    1
   754     757    1
   760     766    1
   760     767    1
   760     768    1
   760     770    1
   760     790    1
   760     792    1
   760     794    1
   761     765    1
   761     769    1
   761     793    1
   762     765    1
   762     769    1
   762     793    1
   763     765    1
   763     769    1
   763     793    1
   764     771    1
   764     789    1
   764     791    1
   764     795    1
   764     796    1
   764     827    1
   765     770    1
   765     790    1
   765     792    1
   765     794    1
   766     769    1
   766     793    1
   767     769    1
   767     793    1
   768     769    1
   768     793    1
   769     772    1
   769     773    1
   769     776    1
   769     794    1
   769     827    1
   770     774    1
   770     789    1
   770     791    1
   770     794    1
   770     826    1
   770     828    1
   771     775    1
   771     776    1
   771     784    1
   771     790    1
   771     793    1
   771     827    1
   772     774    1
   772     789    1
   772     792    1
   773     777    1
   773     778    1
   773     782    1
   773     785    1
   773     786    1
   773     791    1
   773     792    1
   774     779    1
   774     780    1
   774     783    1
   774     787    1
   774     788    1
   774     790    1
   774    3089    1
   775     777    1
   775     778    1
   775     782    1
   775     785    1
   775     786    1
   775     789    1
   776     781    1
   776     782    1
   776     785    1
   776     787    1
   776     788    1
   776     791    1
   776    3090    1
   777     779    1
   777     780    1
   777     784    1
   777     786    1
   777     790    1
   778     783    1
   778     785    1
   778     790    1
   778    3089    1
   778    3091    1
   779     781    1
   779     782    1
   779     784    1
   779     787    1
   779     788    1
   779     789    1
   779    3090    1
   780     785    1
   780     787    1
   780     788    1
   780     789    1
   780    3082    1
   780    3084    1
   780    3092    1
   781     783    1
   781     784    1
   781     786    1
   781    3089    1
   781    3091    1
   782     787    1
   782     788    1
   782    3083    1
   782    3085    1
   782    3091    1
   783     785    1
   783     786    1
   783    3084    1
   783    3090    1
   784     789    1
   784    3084    1
   784    3090    1
   785     787    1
   785     788    1
   785    3089    1
   786     789    1
   786    3089    1
   786    3090    1
   790     792    1
   790     793    1
   792     795    1
   792     796    1
   792     799    1
   793     797    1
   793     826    1
   793     828    1
   794     798    1
   794     799    1
   794     821    1
   794     827    1
   795     797    1
   795     826    1
   796     800    1
   796     801    1
   796     819    1
   796     822    1
   796     823    1
   796     828    1
   797     802    1
   797     803    1
   797     806    1
   797     820    1
   797     824    1
   797     825    1
   797     827    1
   798     800    1
   798     801    1
   798     819    1
   798     822    1
   798     823    1
   798     826    1
   799     804    1
   799     805    1
   799     819    1
   799     822    1
   799     824    1
   799     825    1
   799     828    1
   800     802    1
   800     803    1
   800     821    1
   800     823    1
   800     827    1
   801     806    1
   801     814    1
   801     820    1
   801     822    1
   801     827    1
   802     804    1
   802     805    1
   802     819    1
   802     821    1
   802     824    1
   802     825    1
   802     826    1
   803     807    1
   803     813    1
   803     815    1
   803     822    1
   803     824    1
   803     825    1
   803     826    1
   804     806    1
   804     814    1
   804     820    1
   804     821    1
   804     823    1
   805     808    1
   805     812    1
   805     816    1
   805     817    1
   805     818    1
   805     820    1
   805     821    1
   805     823    1
   805    3471    1
   806     809    1
   806     810    1
   806     811    1
   806     813    1
   806     815    1
   806     822    1
   806     823    1
   806    3473    1
   807     814    1
   807     820    1
   807     821    1
   807    3471    1
   807    3474    1
   807    3475    1
   808     813    1
   808     819    1
   808    3473    1
   809     812    1
   810     812    1
   811     812    1
   812     815    1
   812     819    1
   812    3465    1
   812    3469    1
   812    3472    1
   812    3476    1
   812    3477    1
   813     816    1
   813     817    1
   813     818    1
   813    3467    1
   813    3470    1
   813    3474    1
   813    3475    1
   813    3477    1
   814     819    1
   814    3469    1
   814    3472    1
   814    3473    1
   815    3471    1
   819     824    1
   819     825    1
   820     822    1
   820     823    1
   821     826    1
   822     824    1
   822     825    1
   823     826    1
   829     835    1
   829     836    1
   829     837    1
   829     839    1
   829     859    1
   829     861    1
   829     863    1
   830     834    1
   830     838    1
   830     862    1
   831     834    1
   831     838    1
   831     862    1
   832     834    1
   832     838    1
   832     862    1
   833     840    1
   833     858    1
   833     860    1
   833     864    1
   833     865    1
   833     896    1
   834     839    1
   834     859    1
   834     861    1
   834     863    1
   835     838    1
   835     862    1
   836     838    1
   836     862    1
   837     838    1
   837     862    1
   838     841    1
   838     842    1
   838     845    1
   838     863    1
   838     896    1
   839     843    1
   839     858    1
   839     860    1
   839     863    1
   839     895    1
   839     897    1
   840     844    1
   840     845    1
   840     853    1
   840     859    1
   840     862    1
   840     896    1
   841     843    1
   841     858    1
   841     861    1
   842     846    1
   842     847    1
   842     851    1
   842     854    1
   842     855    1
   842     860    1
   842     861    1
   843     848    1
   843     849    1
   843     852    1
   843     856    1
   843     857    1
   843     859    1
   843    6195    1
   844     846    1
   844     847    1
   844     851    1
   844     854    1
   844     855    1
   844     858    1
   845     850    1
   845     851    1
   845     854    1
   845     856    1
   845     857    1
   845     860    1
   845    6194    1
   846     848    1
   846     849    1
   846     853    1
   846     855    1
   846     859    1
   847     852    1
   847     854    1
   847     859    1
   847    6189    1
   847    6195    1
   848     850    1
   848     851    1
   848     853    1
   848     856    1
   848     857    1
   848     858    1
   848    6194    1
   849     854    1
   849     856    1
   849     857    1
   849     858    1
   849    6188    1
   849    6190    1
   849    6196    1
   850     852    1
   850     853    1
   850     855    1
   850    6189    1
   850    6195    1
   851     856    1
   851     857    1
   851    6187    1
   851    6189    1
   851    6197    1
   852     854    1
   852     855    1
   852    6194    1
   852    6196    1
   853     858    1
   853    6194    1
   853    6196    1
   854     856    1
   854     857    1
   854    6195    1
   855     858    1
   855    6194    1
   855    6195    1
   859     861    1
   859     862    1
   861     864    1
   861     865    1
   861     868    1
   862     866    1
   862     895    1
   862     897    1
   863     867    1
   863     868    1
   863     890    1
   863     896    1
   864     866    1
   864     895    1
   865     869    1
   865     870    1
   865     888    1
   865     891    1
   865     892    1
   865     897    1
   866     871    1
   866     872    1
   866     875    1
   866     889    1
   866     893    1
   866     894    1
   866     896    1
   867     869    1
   867     870    1
   867     888    1
   867     891    1
   867     892    1
   867     895    1
   868     873    1
   868     874    1
   868     888    1
   868     891    1
   868     893    1
   868     894    1
   868     897    1
   869     871    1
   869     872    1
   869     890    1
   869     892    1
   869     896    1
   870     875    1
   870     883    1
   870     889    1
   870     891    1
   870     896    1
   871     873    1
   871     874    1
   871     888    1
   871     890    1
   871     893    1
   871     894    1
   871     895    1
   872     876    1
   872     882    1
   872     884    1
   872     891    1
   872     893    1
   872     894    1
   872     895    1
   873     875    1
   873     883    1
   873     889    1
   873     890    1
   873     892    1
   874     877    1
   874     881    1
   874     885    1
   874     886    1
   874     887    1
   874     889    1
   874     890    1
   874     892    1
   875     878    1
   875     879    1
   875     880    1
   875     882    1
   875     884    1
   875     891    1
   875     892    1
   876     883    1
   876     889    1
   876     890    1
   877     882    1
   877     888    1
   878     881    1
   879     881    1
   880     881    1
   881     884    1
   881     888    1
   882     885    1
   882     886    1
   882     887    1
   883     888    1
   888     893    1
   888     894    1
   889     891    1
   889     892    1
   890     895    1
   891     893    1
   891     894    1
   892     895    1
   898     904    1
   898     905    1
   898     906    1
   898     908    1
   898     928    1
   898     930    1
   898     932    1
   899     903    1
   899     907    1
   899     931    1
   900     903    1
   900     907    1
   900     931    1
   901     903    1
   901     907    1
   901     931    1
   902     909    1
   902     927    1
   902     929    1
   902     933    1
   902     934    1
   902     965    1
   903     908    1
   903     928    1
   903     930    1
   903     932    1
   904     907    1
   904     931    1
   905     907    1
   905     931    1
   906     907    1
   906     931    1
   907     910    1
   907     911    1
   907     914    1
   907     932    1
   907     965    1
   908     912    1
   908     927    1
   908     929    1
   908     932    1
   908     964    1
   908     966    1
   909     913    1
   909     914    1
   909     922    1
   909     928    1
   909     931    1
   909     965    1
   910     912    1
   910     927    1
   910     930    1
   911     915    1
   911     916    1
   911     920    1
   911     923    1
   911     924    1
   911     929    1
   911     930    1
   912     917    1
   912     918    1
   912     921    1
   912     925    1
   912     926    1
   912     928    1
   913     915    1
   913     916    1
   913     920    1
   913     923    1
   913     924    1
   913     927    1
   914     919    1
   914     920    1
   914     923    1
   914     925    1
   914     926    1
   914     929    1
   915     917    1
   915     918    1
   915     922    1
   915     924    1
   915     928    1
   916     921    1
   916     923    1
   916     928    1
   917     919    1
   917     920    1
   917     922    1
   917     925    1
   917     926    1
   917     927    1
   918     923    1
   918     925    1
   918     926    1
   918     927    1
   919     921    1
   919     922    1
   919     924    1
   920     925    1
   920     926    1
   921     923    1
   921     924    1
   922     927    1
   923     925    1
   923     926    1
   924     927    1
   928     930    1
   928     931    1
   930     933    1
   930     934    1
   930     937    1
   931     935    1
   931     964    1
   931     966    1
   932     936    1
   932     937    1
   932     959    1
   932     965    1
   933     935    1
   933     964    1
   934     938    1
   934     939    1
   934     957    1
   934     960    1
   934     961    1
   934     966    1
   935     940    1
   935     941    1
   935     944    1
   935     958    1
   935     962    1
   935     963    1
   935     965    1
   936     938    1
   936     939    1
   936     957    1
   936     960    1
   936     961    1
   936     964    1
   937     942    1
   937     943    1
   937     957    1
   937     960    1
   937     962    1
   937     963    1
   937     966    1
   938     940    1
   938     941    1
   938     959    1
   938     961    1
   938     965    1
   939     944    1
   939     952    1
   939     958    1
   939     960    1
   939     965    1
   940     942    1
   940     943    1
   940     957    1
   940     959    1
   940     962    1
   940     963    1
   940     964    1
   941     945    1
   941     951    1
   941     953    1
   941     960    1
   941     962    1
   941     963    1
   941     964    1
   942     944    1
   942     952    1
   942     958    1
   942     959    1
   942     961    1
   943     946    1
   943     950    1
   943     954    1
   943     955    1
   943     956    1
   943     958    1
   943     959    1
   943     961    1
   943    4025    1
   944     947    1
   944     948    1
   944     949    1
   944     951    1
   944     953    1
   944     960    1
   944     961    1
   944    4023    1
   945     952    1
   945     958    1
   945     959    1
   945    4021    1
   945    4024    1
   945    4025    1
   946     951    1
   946     957    1
   946    4023    1
   947     950    1
   948     950    1
   949     950    1
   950     953    1
   950     957    1
   950    4019    1
   950    4022    1
   950    4026    1
   950    4027    1
   950    4029    1
   951     954    1
   951     955    1
   951     956    1
   951    4017    1
   951    4021    1
   951    4024    1
   951    4028    1
   951    4029    1
   952     957    1
   952    4023    1
   952    4026    1
   952    4027    1
   953    4025    1
   957     962    1
   957     963    1
   958     960    1
   958     961    1
   959     964    1
   960     962    1
   960     963    1
   961     964    1
   967     973    1
   967     974    1
   967     975    1
   967     977    1
   967     997    1
   967     999    1
   967    1001    1
   968     972    1
   968     976    1
   968    1000    1
   969     972    1
   969     976    1
   969    1000    1
   970     972    1
   970     976    1
   970    1000    1
   971     978    1
   971     996    1
   971     998    1
   971    1002    1
   971    1003    1
   971    1034    1
   972     977    1
   972     997    1
   972     999    1
   972    1001    1
   973     976    1
   973    1000    1
   974     976    1
   974    1000    1
   975     976    1
   975    1000    1
   976     979    1
   976     980    1
   976     983    1
   976    1001    1
   976    1034    1
   977     981    1
   977     996    1
   977     998    1
   977    1001    1
   977    1033    1
   977    1035    1
   978     982    1
   978     983    1
   978     991    1
   978     997    1
   978    1000    1
   978    1034    1
   979     981    1
   979     996    1
   979     999    1
   980     984    1
   980     985    1
   980     989    1
   980     992    1
   980     993    1
   980     998    1
   980     999    1
   981     986    1
   981     987    1
   981     990    1
   981     994    1
   981     995    1
   981     997    1
   981    5160    1
   982     984    1
   982     985    1
   982     989    1
   982     992    1
   982     993    1
   982     996    1
   983     988    1
   983     989    1
   983     992    1
   983     994    1
   983     995    1
   983     998    1
   983    5159    1
   984     986    1
   984     987    1
   984     991    1
   984     993    1
   984     997    1
   985     990    1
   985     992    1
   985     997    1
   985    5154    1
   985    5160    1
   986     988    1
   986     989    1
   986     991    1
   986     994    1
   986     995    1
   986     996    1
   986    5159    1
   987     992    1
   987     994    1
   987     995    1
   987     996    1
   987    5153    1
   987    5155    1
   987    5161    1
   988     990    1
   988     991    1
   988     993    1
   988    5154    1
   988    5160    1
   989     994    1
   989     995    1
   989    5152    1
   989    5154    1
   989    5162    1
   990     992    1
   990     993    1
   990    5159    1
   990    5161    1
   991     996    1
   991    5159    1
   991    5161    1
   992     994    1
   992     995    1
   992    5160    1
   993     996    1
   993    5159    1
   993    5160    1
   997     999    1
   997    1000    1
   999    1002    1
   999    1003    1
   999    1006    1
  1000    1004    1
  1000    1033    1
  1000    1035    1
  1001    1005    1
  1001    1006    1
  1001    1028    1
  1001    1034    1
  1002    1004    1
  1002    1033    1
  1003    1007    1
  1003    1008    1
  1003    1026    1
  1003    1029    1
  1003    1030    1
  1003    1035    1
  1004    1009    1
  1004    1010    1
  1004    1013    1
  1004    1027    1
  1004    1031    1
  1004    1032    1
  1004    1034    1
  1005    1007    1
  1005    1008    1
  1005    1026    1
  1005    1029    1
  1005    1030    1
  1005    1033    1
  1006    1011    1
  1006    1012    1
  1006    1026    1
  1006    1029    1
  1006    1031    1
  1006    1032    1
  1006    1035    1
  1007    1009    1
  1007    1010    1
  1007    1028    1
  1007    1030    1
  1007    1034    1
  1008    1013    1
  1008    1021    1
  1008    1027    1
  1008    1029    1
  1008    1034    1
  1009    1011    1
  1009    1012    1
  1009    1026    1
  1009    1028    1
  1009    1031    1
  1009    1032    1
  1009    1033    1
  1010    1014    1
  1010    1020    1
  1010    1022    1
  1010    1029    1
  1010    1031    1
  1010    1032    1
  1010    1033    1
  1011    1013    1
  1011    1021    1
  1011    1027    1
  1011    1028    1
  1011    1030    1
  1012    1015    1
  1012    1019    1
  1012    1023    1
  1012    1024    1
  1012    1025    1
  1012    1027    1
  1012    1028    1
  1012    1030    1
  1012    5336    1
  1013    1016    1
  1013    1017    1
  1013    1018    1
  1013    1020    1
  1013    1022    1
  1013    1029    1
  1013    1030    1
  1013    5334    1
  1014    1021    1
  1014    1027    1
  1014    1028    1
  1014    5332    1
  1014    5335    1
  1014    5336    1
  1015    1020    1
  1015    1026    1
  1015    5334    1
  1016    1019    1
  1017    1019    1
  1018    1019    1
  1019    1022    1
  1019    1026    1
  1019    5330    1
  1019    5333    1
  1019    5337    1
  1019    5338    1
  1019    5340    1
  1020    1023    1
  1020    1024    1
  1020    1025    1
  1020    5328    1
  1020    5332    1
  1020    5335    1
  1020    5339    1
  1020    5340    1
  1021    1026    1
  1021    5334    1
  1021    5337    1
  1021    5338    1
  1022    5336    1
  1026    1031    1
  1026    1032    1
  1027    1029    1
  1027    1030    1
  1028    1033    1
  1029    1031    1
  1029    1032    1
  1030    1033    1
  1036    1042    1
  1036    1043    1
  1036    1044    1
  1036    1046    1
  1036    1066    1
  1036    1068    1
  1036    1070    1
  1037    1041    1
  1037    1045    1
  1037    1069    1
  1038    1041    1
  1038    1045    1
  1038    1069    1
  1039    1041    1
  1039    1045    1
  1039    1069    1
  1040    1047    1
  1040    1065    1
  1040    1067    1
  1040    1071    1
  1040    1072    1
  1040    1103    1
  1041    1046    1
  1041    1066    1
  1041    1068    1
  1041    1070    1
  1042    1045    1
  1042    1069    1
  1043    1045    1
  1043    1069    1
  1044    1045    1
  1044    1069    1
  1045    1048    1
  1045    1049    1
  1045    1052    1
  1045    1070    1
  1045    1103    1
  1046    1050    1
  1046    1065    1
  1046    1067    1
  1046    1070    1
  1046    1102    1
  1046    1104    1
  1047    1051    1
  1047    1052    1
  1047    1060    1
  1047    1066    1
  1047    1069    1
  1047    1103    1
  1048    1050    1
  1048    1065    1
  1048    1068    1
  1049    1053    1
  1049    1054    1
  1049    1058    1
  1049    1061    1
  1049    1062    1
  1049    1067    1
  1049    1068    1
  1050    1055    1
  1050    1056    1
  1050    1059    1
  1050    1063    1
  1050    1064    1
  1050    1066    1
  1050    2882    1
  1051    1053    1
  1051    1054    1
  1051    1058    1
  1051    1061    1
  1051    1062    1
  1051    1065    1
  1052    1057    1
  1052    1058    1
  1052    1061    1
  1052    1063    1
  1052    1064    1
  1052    1067    1
  1052    2883    1
  1053    1055    1
  1053    1056    1
  1053    1060    1
  1053    1062    1
  1053    1066    1
  1054    1059    1
  1054    1061    1
  1054    1066    1
  1054    2882    1
  1054    2884    1
  1055    1057    1
  1055    1058    1
  1055    1060    1
  1055    1063    1
  1055    1064    1
  1055    1065    1
  1055    2883    1
  1056    1061    1
  1056    1063    1
  1056    1064    1
  1056    1065    1
  1056    2875    1
  1056    2877    1
  1056    2885    1
  1057    1059    1
  1057    1060    1
  1057    1062    1
  1057    2882    1
  1057    2884    1
  1058    1063    1
  1058    1064    1
  1058    2876    1
  1058    2878    1
  1058    2884    1
  1059    1061    1
  1059    1062    1
  1059    2877    1
  1059    2883    1
  1060    1065    1
  1060    2877    1
  1060    2883    1
  1061    1063    1
  1061    1064    1
  1061    2882    1
  1062    1065    1
  1062    2882    1
  1062    2883    1
  1066    1068    1
  1066    1069    1
  1068    1071    1
  1068    1072    1
  1068    1075    1
  1069    1073    1
  1069    1102    1
  1069    1104    1
  1070    1074    1
  1070    1075    1
  1070    1097    1
  1070    1103    1
  1071    1073    1
  1071    1102    1
  1072    1076    1
  1072    1077    1
  1072    1095    1
  1072    1098    1
  1072    1099    1
  1072    1104    1
  1073    1078    1
  1073    1079    1
  1073    1082    1
  1073    1096    1
  1073    1100    1
  1073    1101    1
  1073    1103    1
  1074    1076    1
  1074    1077    1
  1074    1095    1
  1074    1098    1
  1074    1099    1
  1074    1102    1
  1075    1080    1
  1075    1081    1
  1075    1095    1
  1075    1098    1
  1075    1100    1
  1075    1101    1
  1075    1104    1
  1076    1078    1
  1076    1079    1
  1076    1097    1
  1076    1099    1
  1076    1103    1
  1077    1082    1
  1077    1090    1
  1077    1096    1
  1077    1098    1
  1077    1103    1
  1078    1080    1
  1078    1081    1
  1078    1095    1
  1078    1097    1
  1078    1100    1
  1078    1101    1
  1078    1102    1
  1079    1083    1
  1079    1089    1
  1079    1091    1
  1079    1098    1
  1079    1100    1
  1079    1101    1
  1079    1102    1
  1080    1082    1
  1080    1090    1
  1080    1096    1
  1080    1097    1
  1080    1099    1
  1081    1084    1
  1081    1088    1
  1081    1092    1
  1081    1093    1
  1081    1094    1
  1081    1096    1
  1081    1097    1
  1081    1099    1
  1081    4163    1
  1082    1085    1
  1082    1086    1
  1082    1087    1
  1082    1089    1
  1082    1091    1
  1082    1098    1
  1082    1099    1
  1082    4161    1
  1083    1090    1
  1083    1096    1
  1083    1097    1
  1083    4159    1
  1083    4162    1
  1083    4163    1
  1084    1089    1
  1084    1095    1
  1084    4161    1
  1085    1088    1
  1086    1088    1
  1087    1088    1
  1088    1091    1
  1088    1095    1
  1088    4157    1
  1088    4160    1
  1088    4164    1
  1088    4165    1
  1088    4167    1
  1089    1092    1
  1089    1093    1
  1089    1094    1
  1089    4155    1
  1089    4159    1
  1089    4162    1
  1089    4166    1
  1089    4167    1
  1090    1095    1
  1090    4161    1
  1090    4164    1
  1090    4165    1
  1091    4163    1
  1095    1100    1
  1095    1101    1
  1096    1098    1
  1096    1099    1
  1097    1102    1
  1098    1100    1
  1098    1101    1
  1099    1102    1
  1105    1111    1
  1105    1112    1
  1105    1113    1
  1105    1115    1
  1105    1135    1
  1105    1137    1
  1105    1139    1
  1106    1110    1
  1106    1114    1
  1106    1138    1
  1107    1110    1
  1107    1114    1
  1107    1138    1
  1108    1110    1
  1108    1114    1
  1108    1138    1
  1109    1116    1
  1109    1134    1
  1109    1136    1
  1109    1140    1
  1109    1141    1
  1109    1172    1
  1110    1115    1
  1110    1135    1
  1110    1137    1
  1110    1139    1
  1111    1114    1
  1111    1138    1
  1112    1114    1
  1112    1138    1
  1113    1114    1
  1113    1138    1
  1114    1117    1
  1114    1118    1
  1114    1121    1
  1114    1139    1
  1114    1172    1
  1115    1119    1
  1115    1134    1
  1115    1136    1
  1115    1139    1
  1115    1171    1
  1115    1173    1
  1116    1120    1
  1116    1121    1
  1116    1129    1
  1116    1135    1
  1116    1138    1
  1116    1172    1
  1117    1119    1
  1117    1134    1
  1117    1137    1
  1118    1122    1
  1118    1123    1
  1118    1127    1
  1118    1130    1
  1118    1131    1
  1118    1136    1
  1118    1137    1
  1119    1124    1
  1119    1125    1
  1119    1128    1
  1119    1132    1
  1119    1133    1
  1119    1135    1
  1119    4884    1
  1120    1122    1
  1120    1123    1
  1120    1127    1
  1120    1130    1
  1120    1131    1
  1120    1134    1
  1121    1126    1
  1121    1127    1
  1121    1130    1
  1121    1132    1
  1121    1133    1
  1121    1136    1
  1121    4883    1
  1122    1124    1
  1122    1125    1
  1122    1129    1
  1122    1131    1
  1122    1135    1
  1123    1128    1
  1123    1130    1
  1123    1135    1
  1123    4878    1
  1123    4884    1
  1124    1126    1
  1124    1127    1
  1124    1129    1
  1124    1132    1
  1124    1133    1
  1124    1134    1
  1124    4883    1
  1125    1130    1
  1125    1132    1
  1125    1133    1
  1125    1134    1
  1125    4877    1
  1125    4879    1
  1125    4885    1
  1126    1128    1
  1126    1129    1
  1126    1131    1
  1126    4878    1
  1126    4884    1
  1127    1132    1
  1127    1133    1
  1127    4876    1
  1127    4878    1
  1127    4886    1
  1128    1130    1
  1128    1131    1
  1128    4883    1
  1128    4885    1
  1129    1134    1
  1129    4883    1
  1129    4885    1
  1130    1132    1
  1130    1133    1
  1130    4884    1
  1131    1134    1
  1131    4883    1
  1131    4884    1
  1135    1137    1
  1135    1138    1
  1137    1140    1
  1137    1141    1
  1137    1144    1
  1138    1142    1
  1138    1171    1
  1138    1173    1
  1139    1143    1
  1139    1144    1
  1139    1166    1
  1139    1172    1
  1140    1142    1
  1140    1171    1
  1141    1145    1
  1141    1146    1
  1141    1164    1
  1141    1167    1
  1141    1168    1
  1141    1173    1
  1142    1147    1
  1142    1148    1
  1142    1151    1
  1142    1165    1
  1142    1169    1
  1142    1170    1
  1142    1172    1
  1143    1145    1
  1143    1146    1
  1143    1164    1
  1143    1167    1
  1143    1168    1
  1143    1171    1
  1144    1149    1
  1144    1150    1
  1144    1164    1
  1144    1167    1
  1144    1169    1
  1144    1170    1
  1144    1173    1
  1145    1147    1
  1145    1148    1
  1145    1166    1
  1145    1168    1
  1145    1172    1
  1146    1151    1
  1146    1159    1
  1146    1165    1
  1146    1167    1
  1146    1172    1
  1147    1149    1
  1147    1150    1
  1147    1164    1
  1147    1166    1
  1147    1169    1
  1147    1170    1
  1147    1171    1
  1148    1152    1
  1148    1158    1
  1148    1160    1
  1148    1167    1
  1148    1169    1
  1148    1170    1
  1148    1171    1
  1149    1151    1
  1149    1159    1
  1149    1165    1
  1149    1166    1
  1149    1168    1
  1150    1153    1
  1150    1157    1
  1150    1161    1
  1150    1162    1
  1150    1163    1
  1150    1165    1
  1150    1166    1
  1150    1168    1
  1150    2093    1
  1151    1154    1
  1151    1155    1
  1151    1156    1
  1151    1158    1
  1151    1160    1
  1151    1167    1
  1151    1168    1
  1151    2091    1
  1152    1159    1
  1152    1165    1
  1152    1166    1
  1152    2089    1
  1152    2092    1
  1152    2093    1
  1153    1158    1
  1153    1164    1
  1153    2091    1
  1154    1157    1
  1155    1157    1
  1156    1157    1
  1157    1160    1
  1157    1164    1
  1157    2087    1
  1157    2090    1
  1157    2094    1
  1157    2095    1
  1157    2097    1
  1158    1161    1
  1158    1162    1
  1158    1163    1
  1158    2085    1
  1158    2089    1
  1158    2092    1
  1158    2096    1
  1158    2097    1
  1159    1164    1
  1159    2091    1
  1159    2094    1
  1159    2095    1
  1160    2093    1
  1164    1169    1
  1164    1170    1
  1165    1167    1
  1165    1168    1
  1166    1171    1
  1167    1169    1
  1167    1170    1
  1168    1171    1
  1174    1180    1
  1174    1181    1
  1174    1182    1
  1174    1184    1
  1174    1204    1
  1174    1206    1
  1174    1208    1
  1175    1179    1
  1175    1183    1
  1175    1207    1
  1176    1179    1
  1176    1183    1
  1176    1207    1
  1177    1179    1
  1177    1183    1
  1177    1207    1
  1178    1185    1
  1178    1203    1
  1178    1205    1
  1178    1209    1
  1178    1210    1
  1178    1241    1
  1179    1184    1
  1179    1204    1
  1179    1206    1
  1179    1208    1
  1180    1183    1
  1180    1207    1
  1181    1183    1
  1181    1207    1
  1182    1183    1
  1182    1207    1
  1183    1186    1
  1183    1187    1
  1183    1190    1
  1183    1208    1
  1183    1241    1
  1184    1188    1
  1184    1203    1
  1184    1205    1
  1184    1208    1
  1184    1240    1
  1184    1242    1
  1185    1189    1
  1185    1190    1
  1185    1198    1
  1185    1204    1
  1185    1207    1
  1185    1241    1
  1186    1188    1
  1186    1203    1
  1186    1206    1
  1187    1191    1
  1187    1192    1
  1187    1196    1
  1187    1199    1
  1187    1200    1
  1187    1205    1
  1187    1206    1
  1188    1193    1
  1188    1194    1
  1188    1197    1
  1188    1201    1
  1188    1202    1
  1188    1204    1
  1188    2468    1
  1189    1191    1
  1189    1192    1
  1189    1196    1
  1189    1199    1
  1189    1200    1
  1189    1203    1
  1190    1195    1
  1190    1196    1
  1190    1199    1
  1190    1201    1
  1190    1202    1
  1190    1205    1
  1190    2469    1
  1191    1193    1
  1191    1194    1
  1191    1198    1
  1191    1200    1
  1191    1204    1
  1192    1197    1
  1192    1199    1
  1192    1204    1
  1192    2468    1
  1192    2470    1
  1193    1195    1
  1193    1196    1
  1193    1198    1
  1193    1201    1
  1193    1202    1
  1193    1203    1
  1193    2469    1
  1194    1199    1
  1194    1201    1
  1194    1202    1
  1194    1203    1
  1194    2461    1
  1194    2463    1
  1194    2471    1
  1195    1197    1
  1195    1198    1
  1195    1200    1
  1195    2468    1
  1195    2470    1
  1196    1201    1
  1196    1202    1
  1196    2462    1
  1196    2464    1
  1196    2470    1
  1197    1199    1
  1197    1200    1
  1197    2463    1
  1197    2469    1
  1198    1203    1
  1198    2463    1
  1198    2469    1
  1199    1201    1
  1199    1202    1
  1199    2468    1
  1200    1203    1
  1200    2468    1
  1200    2469    1
  1204    1206    1
  1204    1207    1
  1206    1209    1
  1206    1210    1
  1206    1213    1
  1207    1211    1
  1207    1240    1
  1207    1242    1
  1208    1212    1
  1208    1213    1
  1208    1235    1
  1208    1241    1
  1209    1211    1
  1209    1240    1
  1210    1214    1
  1210    1215    1
  1210    1233    1
  1210    1236    1
  1210    1237    1
  1210    1242    1
  1211    1216    1
  1211    1217    1
  1211    1220    1
  1211    1234    1
  1211    1238    1
  1211    1239    1
  1211    1241    1
  1212    1214    1
  1212    1215    1
  1212    1233    1
  1212    1236    1
  1212    1237    1
  1212    1240    1
  1213    1218    1
  1213    1219    1
  1213    1233    1
  1213    1236    1
  1213    1238    1
  1213    1239    1
  1213    1242    1
  1214    1216    1
  1214    1217    1
  1214    1235    1
  1214    1237    1
  1214    1241    1
  1215    1220    1
  1215    1228    1
  1215    1234    1
  1215    1236    1
  1215    1241    1
  1216    1218    1
  1216    1219    1
  1216    1233    1
  1216    1235    1
  1216    1238    1
  1216    1239    1
  1216    1240    1
  1217    1221    1
  1217    1227    1
  1217    1229    1
  1217    1236    1
  1217    1238    1
  1217    1239    1
  1217    1240    1
  1218    1220    1
  1218    1228    1
  1218    1234    1
  1218    1235    1
  1218    1237    1
  1219    1222    1
  1219    1226    1
  1219    1230    1
  1219    1231    1
  1219    1232    1
  1219    1234    1
  1219    1235    1
  1219    1237    1
  1219    3195    1
  1220    1223    1
  1220    1224    1
  1220    1225    1
  1220    1227    1
  1220    1229    1
  1220    1236    1
  1220    1237    1
  1220    3197    1
  1221    1228    1
  1221    1234    1
  1221    1235    1
  1221    3195    1
  1221    3198    1
  1221    3199    1
  1222    1227    1
  1222    1233    1
  1222    3197    1
  1223    1226    1
  1224    1226    1
  1225    1226    1
  1226    1229    1
  1226    1233    1
  1226    3189    1
  1226    3193    1
  1226    3196    1
  1226    3200    1
  1226    3201    1
  1227    1230    1
  1227    1231    1
  1227    1232    1
  1227    3191    1
  1227    3194    1
  1227    3198    1
  1227    3199    1
  1227    3201    1
  1228    1233    1
  1228    3193    1
  1228    3196    1
  1228    3197    1
  1229    3195    1
  1233    1238    1
  1233    1239    1
  1234    1236    1
  1234    1237    1
  1235    1240    1
  1236    1238    1
  1236    1239    1
  1237    1240    1
  1243    1249    1
  1243    1250    1
  1243    1251    1
  1243    1253    1
  1243    1273    1
  1243    1275    1
  1243    1277    1
  1244    1248    1
  1244    1252    1
  1244    1276    1
  1245    1248    1
  1245    1252    1
  1245    1276    1
  1246    1248    1
  1246    1252    1
  1246    1276    1
  1247    1254    1
  1247    1272    1
  1247    1274    1
  1247    1278    1
  1247    1279    1
  1247    1310    1
  1248    1253    1
  1248    1273    1
  1248    1275    1
  1248    1277    1
  1249    1252    1
  1249    1276    1
  1250    1252    1
  1250    1276    1
  1251    1252    1
  1251    1276    1
  1252    1255    1
  1252    1256    1
  1252    1259    1
  1252    1277    1
  1252    1310    1
  1253    1257    1
  1253    1272    1
  1253    1274    1
  1253    1277    1
  1253    1309    1
  1253    1311    1
  1254    1258    1
  1254    1259    1
  1254    1267    1
  1254    1273    1
  1254    1276    1
  1254    1310    1
  1255    1257    1
  1255    1272    1
  1255    1275    1
  1256    1260    1
  1256    1261    1
  1256    1265    1
  1256    1268    1
  1256    1269    1
  1256    1274    1
  1256    1275    1
  1257    1262    1
  1257    1263    1
  1257    1266    1
  1257    1270    1
  1257    1271    1
  1257    1273    1
  1257    4677    1
  1258    1260    1
  1258    1261    1
  1258    1265    1
  1258    1268    1
  1258    1269    1
  1258    1272    1
  1259    1264    1
  1259    1265    1
  1259    1268    1
  1259    1270    1
  1259    1271    1
  1259    1274    1
  1259    4676    1
  1260    1262    1
  1260    1263    1
  1260    1267    1
  1260    1269    1
  1260    1273    1
  1261    1266    1
  1261    1268    1
  1261    1273    1
  1261    4671    1
  1261    4677    1
  1262    1264    1
  1262    1265    1
  1262    1267    1
  1262    1270    1
  1262    1271    1
  1262    1272    1
  1262    4676    1
  1263    1268    1
  1263    1270    1
  1263    1271    1
  1263    1272    1
  1263    4670    1
  1263    4672    1
  1263    4678    1
  1264    1266    1
  1264    1267    1
  1264    1269    1
  1264    4671    1
  1264    4677    1
  1265    1270    1
  1265    1271    1
  1265    4669    1
  1265    4671    1
  1265    4679    1
  1266    1268    1
  1266    1269    1
  1266    4676    1
  1266    4678    1
  1267    1272    1
  1267    4676    1
  1267    4678    1
  1268    1270    1
  1268    1271    1
  1268    4677    1
  1269    1272    1
  1269    4676    1
  1269    4677    1
  1273    1275    1
  1273    1276    1
  1275    1278    1
  1275    1279    1
  1275    1282    1
  1276    1280    1
  1276    1309    1
  1276    1311    1
  1277    1281    1
  1277    1282    1
  1277    1304    1
  1277    1310    1
  1278    1280    1
  1278    1309    1
  1279    1283    1
  1279    1284    1
  1279    1302    1
  1279    1305    1
  1279    1306    1
  1279    1311    1
  1280    1285    1
  1280    1286    1
  1280    1289    1
  1280    1303    1
  1280    1307    1
  1280    1308    1
  1280    1310    1
  1281    1283    1
  1281    1284    1
  1281    1302    1
  1281    1305    1
  1281    1306    1
  1281    1309    1
  1282    1287    1
  1282    1288    1
  1282    1302    1
  1282    1305    1
  1282    1307    1
  1282    1308    1
  1282    1311    1
  1283    1285    1
  1283    1286    1
  1283    1304    1
  1283    1306    1
  1283    1310    1
  1284    1289    1
  1284    1297    1
  1284    1303    1
  1284    1305    1
  1284    1310    1
  1285    1287    1
  1285    1288    1
  1285    1302    1
  1285    1304    1
  1285    1307    1
  1285    1308    1
  1285    1309    1
  1286    1290    1
  1286    1296    1
  1286    1298    1
  1286    1305    1
  1286    1307    1
  1286    1308    1
  1286    1309    1
  1287    1289    1
  1287    1297    1
  1287    1303    1
  1287    1304    1
  1287    1306    1
  1288    1291    1
  1288    1295    1
  1288    1299    1
  1288    1300    1
  1288    1301    1
  1288    1303    1
  1288    1304    1
  1288    1306    1
  1288    5819    1
  1289    1292    1
  1289    1293    1
  1289    1294    1
  1289    1296    1
  1289    1298    1
  1289    1305    1
  1289    1306    1
  1289    5817    1
  1290    1297    1
  1290    1303    1
  1290    1304    1
  1290    5815    1
  1290    5818    1
  1290    5819    1
  1291    1296    1
  1291    1302    1
  1291    5817    1
  1292    1295    1
  1293    1295    1
  1294    1295    1
  1295    1298    1
  1295    1302    1
  1295    5813    1
  1295    5816    1
  1295    5820    1
  1295    5821    1
  1295    5823    1
  1296    1299    1
  1296    1300    1
  1296    1301    1
  1296    5811    1
  1296    5815    1
  1296    5818    1
  1296    5822    1
  1296    5823    1
  1297    1302    1
  1297    5817    1
  1297    5820    1
  1297    5821    1
  1298    5819    1
  1302    1307    1
  1302    1308    1
  1303    1305    1
  1303    1306    1
  1304    1309    1
  1305    1307    1
  1305    1308    1
  1306    1309    1
  1312    1318    1
  1312    1319    1
  1312    1320    1
  1312    1322    1
  1312    1342    1
  1312    1344    1
  1312    1346    1
  1313    1317    1
  1313    1321    1
  1313    1345    1
  1314    1317    1
  1314    1321    1
  1314    1345    1
  1315    1317    1
  1315    1321    1
  1315    1345    1
  1316    1323    1
  1316    1341    1
  1316    1343    1
  1316    1347    1
  1316    1348    1
  1316    1379    1
  1317    1322    1
  1317    1342    1
  1317    1344    1
  1317    1346    1
  1318    1321    1
  1318    1345    1
  1319    1321    1
  1319    1345    1
  1320    1321    1
  1320    1345    1
  1321    1324    1
  1321    1325    1
  1321    1328    1
  1321    1346    1
  1321    1379    1
  1322    1326    1
  1322    1341    1
  1322    1343    1
  1322    1346    1
  1322    1378    1
  1322    1380    1
  1323    1327    1
  1323    1328    1
  1323    1336    1
  1323    1342    1
  1323    1345    1
  1323    1379    1
  1324    1326    1
  1324    1341    1
  1324    1344    1
  1325    1329    1
  1325    1330    1
  1325    1334    1
  1325    1337    1
  1325    1338    1
  1325    1343    1
  1325    1344    1
  1326    1331    1
  1326    1332    1
  1326    1335    1
  1326    1339    1
  1326    1340    1
  1326    1342    1
  1326    5573    1
  1327    1329    1
  1327    1330    1
  1327    1334    1
  1327    1337    1
  1327    1338    1
  1327    1341    1
  1328    1333    1
  1328    1334    1
  1328    1337    1
  1328    1339    1
  1328    1340    1
  1328    1343    1
  1328    5574    1
  1329    1331    1
  1329    1332    1
  1329    1336    1
  1329    1338    1
  1329    1342    1
  1330    1335    1
  1330    1337    1
  1330    1342    1
  1330    5573    1
  1330    5575    1
  1331    1333    1
  1331    1334    1
  1331    1336    1
  1331    1339    1
  1331    1340    1
  1331    1341    1
  1331    5574    1
  1332    1337    1
  1332    1339    1
  1332    1340    1
  1332    1341    1
  1332    5566    1
  1332    5568    1
  1332    5576    1
  1333    1335    1
  1333    1336    1
  1333    1338    1
  1333    5573    1
  1333    5575    1
  1334    1339    1
  1334    1340    1
  1334    5567    1
  1334    5569    1
  1334    5575    1
  1335    1337    1
  1335    1338    1
  1335    5568    1
  1335    5574    1
  1336    1341    1
  1336    5568    1
  1336    5574    1
  1337    1339    1
  1337    1340    1
  1337    5573    1
  1338    1341    1
  1338    5573    1
  1338    5574    1
  1342    1344    1
  1342    1345    1
  1344    1347    1
  1344    1348    1
  1344    1351    1
  1345    1349    1
  1345    1378    1
  1345    1380    1
  1346    1350    1
  1346    1351    1
  1346    1373    1
  1346    1379    1
  1347    1349    1
  1347    1378    1
  1348    1352    1
  1348    1353    1
  1348    1371    1
  1348    1374    1
  1348    1375    1
  1348    1380    1
  1349    1354    1
  1349    1355    1
  1349    1358    1
  1349    1372    1
  1349    1376    1
  1349    1377    1
  1349    1379    1
  1350    1352    1
  1350    1353    1
  1350    1371    1
  1350    1374    1
  1350    1375    1
  1350    1378    1
  1351    1356    1
  1351    1357    1
  1351    1371    1
  1351    1374    1
  1351    1376    1
  1351    1377    1
  1351    1380    1
  1352    1354    1
  1352    1355    1
  1352    1373    1
  1352    1375    1
  1352    1379    1
  1353    1358    1
  1353    1366    1
  1353    1372    1
  1353    1374    1
  1353    1379    1
  1354    1356    1
  1354    1357    1
  1354    1371    1
  1354    1373    1
  1354    1376    1
  1354    1377    1
  1354    1378    1
  1355    1359    1
  1355    1365    1
  1355    1367    1
  1355    1374    1
  1355    1376    1
  1355    1377    1
  1355    1378    1
  1356    1358    1
  1356    1366    1
  1356    1372    1
  1356    1373    1
  1356    1375    1
  1357    1360    1
  1357    1364    1
  1357    1368    1
  1357    1369    1
  1357    1370    1
  1357    1372    1
  1357    1373    1
  1357    1375    1
  1357    3128    1
  1358    1361    1
  1358    1362    1
  1358    1363    1
  1358    1365    1
  1358    1367    1
  1358    1374    1
  1358    1375    1
  1358    3126    1
  1359    1366    1
  1359    1372    1
  1359    1373    1
  1359    3124    1
  1359    3127    1
  1359    3128    1
  1360    1365    1
  1360    1371    1
  1360    3126    1
  1361    1364    1
  1362    1364    1
  1363    1364    1
  1364    1367    1
  1364    1371    1
  1364    3122    1
  1364    3125    1
  1364    3129    1
  1364    3130    1
  1364    3132    1
  1365    1368    1
  1365    1369    1
  1365    1370    1
  1365    3120    1
  1365    3124    1
  1365    3127    1
  1365    3131    1
  1365    3132    1
  1366    1371    1
  1366    3126    1
  1366    3129    1
  1366    3130    1
  1367    3128    1
  1371    1376    1
  1371    1377    1
  1372    1374    1
  1372    1375    1
  1373    1378    1
  1374    1376    1
  1374    1377    1
  1375    1378    1
  1381    1387    1
  1381    1388    1
  1381    1389    1
  1381    1391    1
  1381    1411    1
  1381    1413    1
  1381    1415    1
  1382    1386    1
  1382    1390    1
  1382    1414    1
  1383    1386    1
  1383    1390    1
  1383    1414    1
  1384    1386    1
  1384    1390    1
  1384    1414    1
  1385    1392    1
  1385    1410    1
  1385    1412    1
  1385    1416    1
  1385    1417    1
  1385    1448    1
  1386    1391    1
  1386    1411    1
  1386    1413    1
  1386    1415    1
  1387    1390    1
  1387    1414    1
  1388    1390    1
  1388    1414    1
  1389    1390    1
  1389    1414    1
  1390    1393    1
  1390    1394    1
  1390    1397    1
  1390    1415    1
  1390    1448    1
  1391    1395    1
  1391    1410    1
  1391    1412    1
  1391    1415    1
  1391    1447    1
  1391    1449    1
  1392    1396    1
  1392    1397    1
  1392    1405    1
  1392    1411    1
  1392    1414    1
  1392    1448    1
  1393    1395    1
  1393    1410    1
  1393    1413    1
  1394    1398    1
  1394    1399    1
  1394    1403    1
  1394    1406    1
  1394    1407    1
  1394    1412    1
  1394    1413    1
  1395    1400    1
  1395    1401    1
  1395    1404    1
  1395    1408    1
  1395    1409    1
  1395    1411    1
  1395    3504    1
  1396    1398    1
  1396    1399    1
  1396    1403    1
  1396    1406    1
  1396    1407    1
  1396    1410    1
  1397    1402    1
  1397    1403    1
  1397    1406    1
  1397    1408    1
  1397    1409    1
  1397    1412    1
  1397    3503    1
  1398    1400    1
  1398    1401    1
  1398    1405    1
  1398    1407    1
  1398    1411    1
  1399    1404    1
  1399    1406    1
  1399    1411    1
  1399    3498    1
  1399    3504    1
  1400    1402    1
  1400    1403    1
  1400    1405    1
  1400    1408    1
  1400    1409    1
  1400    1410    1
  1400    3503    1
  1401    1406    1
  1401    1408    1
  1401    1409    1
  1401    1410    1
  1401    3497    1
  1401    3499    1
  1401    3505    1
  1402    1404    1
  1402    1405    1
  1402    1407    1
  1402    3498    1
  1402    3504    1
  1403    1408    1
  1403    1409    1
  1403    3496    1
  1403    3498    1
  1403    3506    1
  1404    1406    1
  1404    1407    1
  1404    3503    1
  1404    3505    1
  1405    1410    1
  1405    3503    1
  1405    3505    1
  1406    1408    1
  1406    1409    1
  1406    3504    1
  1407    1410    1
  1407    3503    1
  1407    3504    1
  1411    1413    1
  1411    1414    1
  1413    1416    1
  1413    1417    1
  1413    1420    1
  1414    1418    1
  1414    1447    1
  1414    1449    1
  1415    1419    1
  1415    1420    1
  1415    1442    1
  1415    1448    1
  1416    1418    1
  1416    1447    1
  1417    1421    1
  1417    1422    1
  1417    1440    1
  1417    1443    1
  1417    1444    1
  1417    1449    1
  1418    1423    1
  1418    1424    1
  1418    1427    1
  1418    1441    1
  1418    1445    1
  1418    1446    1
  1418    1448    1
  1419    1421    1
  1419    1422    1
  1419    1440    1
  1419    1443    1
  1419    1444    1
  1419    1447    1
  1420    1425    1
  1420    1426    1
  1420    1440    1
  1420    1443    1
  1420    1445    1
  1420    1446    1
  1420    1449    1
  1421    1423    1
  1421    1424    1
  1421    1442    1
  1421    1444    1
  1421    1448    1
  1422    1427    1
  1422    1435    1
  1422    1441    1
  1422    1443    1
  1422    1448    1
  1423    1425    1
  1423    1426    1
  1423    1440    1
  1423    1442    1
  1423    1445    1
  1423    1446    1
  1423    1447    1
  1424    1428    1
  1424    1434    1
  1424    1436    1
  1424    1443    1
  1424    1445    1
  1424    1446    1
  1424    1447    1
  1425    1427    1
  1425    1435    1
  1425    1441    1
  1425    1442    1
  1425    1444    1
  1426    1429    1
  1426    1433    1
  1426    1437    1
  1426    1438    1
  1426    1439    1
  1426    1441    1
  1426    1442    1
  1426    1444    1
  1426    4299    1
  1427    1430    1
  1427    1431    1
  1427    1432    1
  1427    1434    1
  1427    1436    1
  1427    1443    1
  1427    1444    1
  1427    4301    1
  1428    1435    1
  1428    1441    1
  1428    1442    1
  1428    4299    1
  1428    4302    1
  1428    4303    1
  1429    1434    1
  1429    1440    1
  1429    4301    1
  1430    1433    1
  1431    1433    1
  1432    1433    1
  1433    1436    1
  1433    1440    1
  1433    4293    1
  1433    4297    1
  1433    4300    1
  1433    4304    1
  1433    4305    1
  1434    1437    1
  1434    1438    1
  1434    1439    1
  1434    4295    1
  1434    4298    1
  1434    4302    1
  1434    4303    1
  1434    4305    1
  1435    1440    1
  1435    4297    1
  1435    4300    1
  1435    4301    1
  1436    4299    1
  1440    1445    1
  1440    1446    1
  1441    1443    1
  1441    1444    1
  1442    1447    1
  1443    1445    1
  1443    1446    1
  1444    1447    1
  1450    1456    1
  1450    1457    1
  1450    1458    1
  1450    1460    1
  1450    1480    1
  1450    1482    1
  1450    1484    1
  1451    1455    1
  1451    1459    1
  1451    1483    1
  1452    1455    1
  1452    1459    1
  1452    1483    1
  1453    1455    1
  1453    1459    1
  1453    1483    1
  1454    1461    1
  1454    1479    1
  1454    1481    1
  1454    1485    1
  1454    1486    1
  1454    1517    1
  1455    1460    1
  1455    1480    1
  1455    1482    1
  1455    1484    1
  1456    1459    1
  1456    1483    1
  1457    1459    1
  1457    1483    1
  1458    1459    1
  1458    1483    1
  1459    1462    1
  1459    1463    1
  1459    1466    1
  1459    1484    1
  1459    1517    1
  1460    1464    1
  1460    1479    1
  1460    1481    1
  1460    1484    1
  1460    1516    1
  1460    1518    1
  1461    1465    1
  1461    1466    1
  1461    1474    1
  1461    1480    1
  1461    1483    1
  1461    1517    1
  1462    1464    1
  1462    1479    1
  1462    1482    1
  1463    1467    1
  1463    1468    1
  1463    1472    1
  1463    1475    1
  1463    1476    1
  1463    1481    1
  1463    1482    1
  1464    1469    1
  1464    1470    1
  1464    1473    1
  1464    1477    1
  1464    1478    1
  1464    1480    1
  1464    6056    1
  1465    1467    1
  1465    1468    1
  1465    1472    1
  1465    1475    1
  1465    1476    1
  1465    1479    1
  1466    1471    1
  1466    1472    1
  1466    1475    1
  1466    1477    1
  1466    1478    1
  1466    1481    1
  1466    6057    1
  1467    1469    1
  1467    1470    1
  1467    1474    1
  1467    1476    1
  1467    1480    1
  1468    1473    1
  1468    1475    1
  1468    1480    1
  1468    6056    1
  1468    6058    1
  1469    1471    1
  1469    1472    1
  1469    1474    1
  1469    1477    1
  1469    1478    1
  1469    1479    1
  1469    6057    1
  1470    1475    1
  1470    1477    1
  1470    1478    1
  1470    1479    1
  1470    6049    1
  1470    6051    1
  1470    6059    1
  1471    1473    1
  1471    1474    1
  1471    1476    1
  1471    6056    1
  1471    6058    1
  1472    1477    1
  1472    1478    1
  1472    6050    1
  1472    6052    1
  1472    6058    1
  1473    1475    1
  1473    1476    1
  1473    6051    1
  1473    6057    1
  1474    1479    1
  1474    6051    1
  1474    6057    1
  1475    1477    1
  1475    1478    1
  1475    6056    1
  1476    1479    1
  1476    6056    1
  1476    6057    1
  1480    1482    1
  1480    1483    1
  1482    1485    1
  1482    1486    1
  1482    1489    1
  1483    1487    1
  1483    1516    1
  1483    1518    1
  1484    1488    1
  1484    1489    1
  1484    1511    1
  1484    1517    1
  1485    1487    1
  1485    1516    1
  1486    1490    1
  1486    1491    1
  1486    1509    1
  1486    1512    1
  1486    1513    1
  1486    1518    1
  1487    1492    1
  1487    1493    1
  1487    1496    1
  1487    1510    1
  1487    1514    1
  1487    1515    1
  1487    1517    1
  1488    1490    1
  1488    1491    1
  1488    1509    1
  1488    1512    1
  1488    1513    1
  1488    1516    1
  1489    1494    1
  1489    1495    1
  1489    1509    1
  1489    1512    1
  1489    1514    1
  1489    1515    1
  1489    1518    1
  1490    1492    1
  1490    1493    1
  1490    1511    1
  1490    1513    1
  1490    1517    1
  1491    1496    1
  1491    1504    1
  1491    1510    1
  1491    1512    1
  1491    1517    1
  1492    1494    1
  1492    1495    1
  1492    1509    1
  1492    1511    1
  1492    1514    1
  1492    1515    1
  1492    1516    1
  1493    1497    1
  1493    1503    1
  1493    1505    1
  1493    1512    1
  1493    1514    1
  1493    1515    1
  1493    1516    1
  1494    1496    1
  1494    1504    1
  1494    1510    1
  1494    1511    1
  1494    1513    1
  1495    1498    1
  1495    1502    1
  1495    1506    1
  1495    1507    1
  1495    1508    1
  1495    1510    1
  1495    1511    1
  1495    1513    1
  1495    6231    1
  1496    1499    1
  1496    1500    1
  1496    1501    1
  1496    1503    1
  1496    1505    1
  1496    1512    1
  1496    1513    1
  1496    6233    1
  1497    1504    1
  1497    1510    1
  1497    1511    1
  1497    6231    1
  1497    6234    1
  1497    6235    1
  1498    1503    1
  1498    1509    1
  1498    6233    1
  1499    1502    1
  1500    1502    1
  1501    1502    1
  1502    1505    1
  1502    1509    1
  1502    6225    1
  1502    6229    1
  1502    6232    1
  1502    6236    1
  1502    6237    1
  1503    1506    1
  1503    1507    1
  1503    1508    1
  1503    6227    1
  1503    6230    1
  1503    6234    1
  1503    6235    1
  1503    6237    1
  1504    1509    1
  1504    6229    1
  1504    6232    1
  1504    6233    1
  1505    6231    1
  1509    1514    1
  1509    1515    1
  1510    1512    1
  1510    1513    1
  1511    1516    1
  1512    1514    1
  1512    1515    1
  1513    1516    1
  1519    1525    1
  1519    1526    1
  1519    1527    1
  1519    1529    1
  1519    1549    1
  1519    1551    1
  1519    1553    1
  1520    1524    1
  1520    1528    1
  1520    1552    1
  1521    1524    1
  1521    1528    1
  1521    1552    1
  1522    1524    1
  1522    1528    1
  1522    1552    1
  1523    1530    1
  1523    1548    1
  1523    1550    1
  1523    1554    1
  1523    1555    1
  1523    1586    1
  1524    1529    1
  1524    1549    1
  1524    1551    1
  1524    1553    1
  1525    1528    1
  1525    1552    1
  1526    1528    1
  1526    1552    1
  1527    1528    1
  1527    1552    1
  1528    1531    1
  1528    1532    1
  1528    1535    1
  1528    1553    1
  1528    1586    1
  1529    1533    1
  1529    1548    1
  1529    1550    1
  1529    1553    1
  1529    1585    1
  1529    1587    1
  1530    1534    1
  1530    1535    1
  1530    1543    1
  1530    1549    1
  1530    1552    1
  1530    1586    1
  1531    1533    1
  1531    1548    1
  1531    1551    1
  1532    1536    1
  1532    1537    1
  1532    1541    1
  1532    1544    1
  1532    1545    1
  1532    1550    1
  1532    1551    1
  1533    1538    1
  1533    1539    1
  1533    1542    1
  1533    1546    1
  1533    1547    1
  1533    1549    1
  1533    5229    1
  1534    1536    1
  1534    1537    1
  1534    1541    1
  1534    1544    1
  1534    1545    1
  1534    1548    1
  1535    1540    1
  1535    1541    1
  1535    1544    1
  1535    1546    1
  1535    1547    1
  1535    1550    1
  1535    5228    1
  1536    1538    1
  1536    1539    1
  1536    1543    1
  1536    1545    1
  1536    1549    1
  1537    1542    1
  1537    1544    1
  1537    1549    1
  1537    5223    1
  1537    5229    1
  1538    1540    1
  1538    1541    1
  1538    1543    1
  1538    1546    1
  1538    1547    1
  1538    1548    1
  1538    5228    1
  1539    1544    1
  1539    1546    1
  1539    1547    1
  1539    1548    1
  1539    5222    1
  1539    5224    1
  1539    5230    1
  1540    1542    1
  1540    1543    1
  1540    1545    1
  1540    5223    1
  1540    5229    1
  1541    1546    1
  1541    1547    1
  1541    5221    1
  1541    5223    1
  1541    5231    1
  1542    1544    1
  1542    1545    1
  1542    5228    1
  1542    5230    1
  1543    1548    1
  1543    5228    1
  1543    5230    1
  1544    1546    1
  1544    1547    1
  1544    5229    1
  1545    1548    1
  1545    5228    1
  1545    5229    1
  1549    1551    1
  1549    1552    1
  1551    1554    1
  1551    1555    1
  1551    1558    1
  1552    1556    1
  1552    1585    1
  1552    1587    1
  1553    1557    1
  1553    1558    1
  1553    1580    1
  1553    1586    1
  1554    1556    1
  1554    1585    1
  1555    1559    1
  1555    1560    1
  1555    1578    1
  1555    1581    1
  1555    1582    1
  1555    1587    1
  1556    1561    1
  1556    1562    1
  1556    1565    1
  1556    1579    1
  1556    1583    1
  1556    1584    1
  1556    1586    1
  1557    1559    1
  1557    1560    1
  1557    1578    1
  1557    1581    1
  1557    1582    1
  1557    1585    1
  1558    1563    1
  1558    1564    1
  1558    1578    1
  1558    1581    1
  1558    1583    1
  1558    1584    1
  1558    1587    1
  1559    1561    1
  1559    1562    1
  1559    1580    1
  1559    1582    1
  1559    1586    1
  1560    1565    1
  1560    1573    1
  1560    1579    1
  1560    1581    1
  1560    1586    1
  1561    1563    1
  1561    1564    1
  1561    1578    1
  1561    1580    1
  1561    1583    1
  1561    1584    1
  1561    1585    1
  1562    1566    1
  1562    1572    1
  1562    1574    1
  1562    1581    1
  1562    1583    1
  1562    1584    1
  1562    1585    1
  1563    1565    1
  1563    1573    1
  1563    1579    1
  1563    1580    1
  1563    1582    1
  1564    1567    1
  1564    1571    1
  1564    1575    1
  1564    1576    1
  1564    1577    1
  1564    1579    1
  1564    1580    1
  1564    1582    1
  1564    2024    1
  1565    1568    1
  1565    1569    1
  1565    1570    1
  1565    1572    1
  1565    1574    1
  1565    1581    1
  1565    1582    1
  1565    2022    1
  1566    1573    1
  1566    1579    1
  1566    1580    1
  1566    2020    1
  1566    2023    1
  1566    2024    1
  1567    1572    1
  1567    1578    1
  1567    2022    1
  1568    1571    1
  1569    1571    1
  1570    1571    1
  1571    1574    1
  1571    1578    1
  1571    2018    1
  1571    2021    1
  1571    2025    1
  1571    2026    1
  1571    2028    1
  1572    1575    1
  1572    1576    1
  1572    1577    1
  1572    2016    1
  1572    2020    1
  1572    2023    1
  1572    2027    1
  1572    2028    1
  1573    1578    1
  1573    2022    1
  1573    2025    1
  1573    2026    1
  1574    2024    1
  1578    1583    1
  1578    1584    1
  1579    1581    1
  1579    1582    1
  1580    1585    1
  1581    1583    1
  1581    1584    1
  1582    1585    1
  1588    1594    1
  1588    1595    1
  1588    1596    1
  1588    1598    1
  1588    1618    1
  1588    1620    1
  1588    1622    1
  1589    1593    1
  1589    1597    1
  1589    1621    1
  1590    1593    1
  1590    1597    1
  1590    1621    1
  1591    1593    1
  1591    1597    1
  1591    1621    1
  1592    1599    1
  1592    1617    1
  1592    1619    1
  1592    1623    1
  1592    1624    1
  1592    1655    1
  1593    1598    1
  1593    1618    1
  1593    1620    1
  1593    1622    1
  1594    1597    1
  1594    1621    1
  1595    1597    1
  1595    1621    1
  1596    1597    1
  1596    1621    1
  1597    1600    1
  1597    1601    1
  1597    1604    1
  1597    1622    1
  1597    1655    1
  1598    1602    1
  1598    1617    1
  1598    1619    1
  1598    1622    1
  1598    1654    1
  1598    1656    1
  1599    1603    1
  1599    1604    1
  1599    1612    1
  1599    1618    1
  1599    1621    1
  1599    1655    1
  1600    1602    1
  1600    1617    1
  1600    1620    1
  1601    1605    1
  1601    1606    1
  1601    1610    1
  1601    1613    1
  1601    1614    1
  1601    1619    1
  1601    1620    1
  1602    1607    1
  1602    1608    1
  1602    1611    1
  1602    1615    1
  1602    1616    1
  1602    1618    1
  1602    1848    1
  1603    1605    1
  1603    1606    1
  1603    1610    1
  1603    1613    1
  1603    1614    1
  1603    1617    1
  1604    1609    1
  1604    1610    1
  1604    1613    1
  1604    1615    1
  1604    1616    1
  1604    1619    1
  1604    1847    1
  1605    1607    1
  1605    1608    1
  1605    1612    1
  1605    1614    1
  1605    1618    1
  1606    1611    1
  1606    1613    1
  1606    1618    1
  1606    1842    1
  1606    1848    1
  1607    1609    1
  1607    1610    1
  1607    1612    1
  1607    1615    1
  1607    1616    1
  1607    1617    1
  1607    1847    1
  1608    1613    1
  1608    1615    1
  1608    1616    1
  1608    1617    1
  1608    1841    1
  1608    1843    1
  1608    1849    1
  1609    1611    1
  1609    1612    1
  1609    1614    1
  1609    1842    1
  1609    1848    1
  1610    1615    1
  1610    1616    1
  1610    1840    1
  1610    1842    1
  1610    1850    1
  1611    1613    1
  1611    1614    1
  1611    1847    1
  1611    1849    1
  1612    1617    1
  1612    1847    1
  1612    1849    1
  1613    1615    1
  1613    1616    1
  1613    1848    1
  1614    1617    1
  1614    1847    1
  1614    1848    1
  1618    1620    1
  1618    1621    1
  1620    1623    1
  1620    1624    1
  1620    1627    1
  1621    1625    1
  1621    1654    1
  1621    1656    1
  1622    1626    1
  1622    1627    1
  1622    1649    1
  1622    1655    1
  1623    1625    1
  1623    1654    1
  1624    1628    1
  1624    1629    1
  1624    1647    1
  1624    1650    1
  1624    1651    1
  1624    1656    1
  1625    1630    1
  1625    1631    1
  1625    1634    1
  1625    1648    1
  1625    1652    1
  1625    1653    1
  1625    1655    1
  1626    1628    1
  1626    1629    1
  1626    1647    1
  1626    1650    1
  1626    1651    1
  1626    1654    1
  1627    1632    1
  1627    1633    1
  1627    1647    1
  1627    1650    1
  1627    1652    1
  1627    1653    1
  1627    1656    1
  1628    1630    1
  1628    1631    1
  1628    1649    1
  1628    1651    1
  1628    1655    1
  1629    1634    1
  1629    1642    1
  1629    1648    1
  1629    1650    1
  1629    1655    1
  1630    1632    1
  1630    1633    1
  1630    1647    1
  1630    1649    1
  1630    1652    1
  1630    1653    1
  1630    1654    1
  1631    1635    1
  1631    1641    1
  1631    1643    1
  1631    1650    1
  1631    1652    1
  1631    1653    1
  1631    1654    1
  1632    1634    1
  1632    1642    1
  1632    1648    1
  1632    1649    1
  1632    1651    1
  1633    1636    1
  1633    1640    1
  1633    1644    1
  1633    1645    1
  1633    1646    1
  1633    1648    1
  1633    1649    1
  1633    1651    1
  1633    4922    1
  1634    1637    1
  1634    1638    1
  1634    1639    1
  1634    1641    1
  1634    1643    1
  1634    1650    1
  1634    1651    1
  1634    4920    1
  1635    1642    1
  1635    1648    1
  1635    1649    1
  1635    4918    1
  1635    4921    1
  1635    4922    1
  1636    1641    1
  1636    1647    1
  1636    4920    1
  1637    1640    1
  1638    1640    1
  1639    1640    1
  1640    1643    1
  1640    1647    1
  1640    4916    1
  1640    4919    1
  1640    4923    1
  1640    4924    1
  1640    4926    1
  1641    1644    1
  1641    1645    1
  1641    1646    1
  1641    4914    1
  1641    4918    1
  1641    4921    1
  1641    4925    1
  1641    4926    1
  1642    1647    1
  1642    4920    1
  1642    4923    1
  1642    4924    1
  1643    4922    1
  1647    1652    1
  1647    1653    1
  1648    1650    1
  1648    1651    1
  1649    1654    1
  1650    1652    1
  1650    1653    1
  1651    1654    1
  1657    1663    1
  1657    1664    1
  1657    1665    1
  1657    1667    1
  1657    1687    1
  1657    1689    1
  1657    1691    1
  1658    1662    1
  1658    1666    1
  1658    1690    1
  1659    1662    1
  1659    1666    1
  1659    1690    1
  1660    1662    1
  1660    1666    1
  1660    1690    1
  1661    1668    1
  1661    1686    1
  1661    1688    1
  1661    1692    1
  1661    1693    1
  1661    1724    1
  1662    1667    1
  1662    1687    1
  1662    1689    1
  1662    1691    1
  1663    1666    1
  1663    1690    1
  1664    1666    1
  1664    1690    1
  1665    1666    1
  1665    1690    1
  1666    1669    1
  1666    1670    1
  1666    1673    1
  1666    1691    1
  1666    1724    1
  1667    1671    1
  1667    1686    1
  1667    1688    1
  1667    1691    1
  1667    1723    1
  1667    1725    1
  1668    1672    1
  1668    1673    1
  1668    1681    1
  1668    1687    1
  1668    1690    1
  1668    1724    1
  1669    1671    1
  1669    1686    1
  1669    1689    1
  1670    1674    1
  1670    1675    1
  1670    1679    1
  1670    1682    1
  1670    1683    1
  1670    1688    1
  1670    1689    1
  1671    1676    1
  1671    1677    1
  1671    1680    1
  1671    1684    1
  1671    1685    1
  1671    1687    1
  1671    6470    1
  1672    1674    1
  1672    1675    1
  1672    1679    1
  1672    1682    1
  1672    1683    1
  1672    1686    1
  1673    1678    1
  1673    1679    1
  1673    1682    1
  1673    1684    1
  1673    1685    1
  1673    1688    1
  1673    6471    1
  1674    1676    1
  1674    1677    1
  1674    1681    1
  1674    1683    1
  1674    1687    1
  1675    1680    1
  1675    1682    1
  1675    1687    1
  1675    6470    1
  1675    6472    1
  1676    1678    1
  1676    1679    1
  1676    1681    1
  1676    1684    1
  1676    1685    1
  1676    1686    1
  1676    6471    1
  1677    1682    1
  1677    1684    1
  1677    1685    1
  1677    1686    1
  1677    6463    1
  1677    6465    1
  1677    6473    1
  1678    1680    1
  1678    1681    1
  1678    1683    1
  1678    6470    1
  1678    6472    1
  1679    1684    1
  1679    1685    1
  1679    6464    1
  1679    6466    1
  1679    6472    1
  1680    1682    1
  1680    1683    1
  1680    6465    1
  1680    6471    1
  1681    1686    1
  1681    6465    1
  1681    6471    1
  1682    1684    1
  1682    1685    1
  1682    6470    1
  1683    1686    1
  1683    6470    1
  1683    6471    1
  1687    1689    1
  1687    1690    1
  1689    1692    1
  1689    1693    1
  1689    1696    1
  1690    1694    1
  1690    1723    1
  1690    1725    1
  1691    1695    1
  1691    1696    1
  1691    1718    1
  1691    1724    1
  1692    1694    1
  1692    1723    1
  1693    1697    1
  1693    1698    1
  1693    1716    1
  1693    1719    1
  1693    1720    1
  1693    1725    1
  1694    1699    1
  1694    1700    1
  1694    1703    1
  1694    1717    1
  1694    1721    1
  1694    1722    1
  1694    1724    1
  1695    1697    1
  1695    1698    1
  1695    1716    1
  1695    1719    1
  1695    1720    1
  1695    1723    1
  1696    1701    1
  1696    1702    1
  1696    1716    1
  1696    1719    1
  1696    1721    1
  1696    1722    1
  1696    1725    1
  1697    1699    1
  1697    1700    1
  1697    1718    1
  1697    1720    1
  1697    1724    1
  1698    1703    1
  1698    1711    1
  1698    1717    1
  1698    1719    1
  1698    1724    1
  1699    1701    1
  1699    1702    1
  1699    1716    1
  1699    1718    1
  1699    1721    1
  1699    1722    1
  1699    1723    1
  1700    1704    1
  1700    1710    1
  1700    1712    1
  1700    1719    1
  1700    1721    1
  1700    1722    1
  1700    1723    1
  1701    1703    1
  1701    1711    1
  1701    1717    1
  1701    1718    1
  1701    1720    1
  1702    1705    1
  1702    1709    1
  1702    1713    1
  1702    1714    1
  1702    1715    1
  1702    1717    1
  1702    1718    1
  1702    1720    1
  1702    5198    1
  1703    1706    1
  1703    1707    1
  1703    1708    1
  1703    1710    1
  1703    1712    1
  1703    1719    1
  1703    1720    1
  1703    5196    1
  1704    1711    1
  1704    1717    1
  1704    1718    1
  1704    5194    1
  1704    5197    1
  1704    5198    1
  1705    1710    1
  1705    1716    1
  1705    5196    1
  1706    1709    1
  1707    1709    1
  1708    1709    1
  1709    1712    1
  1709    1716    1
  1709    5192    1
  1709    5195    1
  1709    5199    1
  1709    5200    1
  1709    5202    1
  1710    1713    1
  1710    1714    1
  1710    1715    1
  1710    5190    1
  1710    5194    1
  1710    5197    1
  1710    5201    1
  1710    5202    1
  1711    1716    1
  1711    5196    1
  1711    5199    1
  1711    5200    1
  1712    5198    1
  1716    1721    1
  1716    1722    1
  1717    1719    1
  1717    1720    1
  1718    1723    1
  1719    1721    1
  1719    1722    1
  1720    1723    1
  1726    1732    1
  1726    1733    1
  1726    1734    1
  1726    1736    1
  1726    1756    1
  1726    1758    1
  1726    1760    1
  1727    1731    1
  1727    1735    1
  1727    1759    1
  1728    1731    1
  1728    1735    1
  1728    1759    1
  1729    1731    1
  1729    1735    1
  1729    1759    1
  1730    1737    1
  1730    1755    1
  1730    1757    1
  1730    1761    1
  1730    1762    1
  1730    1793    1
  1731    1736    1
  1731    1756    1
  1731    1758    1
  1731    1760    1
  1732    1735    1
  1732    1759    1
  1733    1735    1
  1733    1759    1
  1734    1735    1
  1734    1759    1
  1735    1738    1
  1735    1739    1
  1735    1742    1
  1735    1760    1
  1735    1793    1
  1736    1740    1
  1736    1755    1
  1736    1757    1
  1736    1760    1
  1736    1792    1
  1736    1794    1
  1737    1741    1
  1737    1742    1
  1737    1750    1
  1737    1756    1
  1737    1759    1
  1737    1793    1
  1738    1740    1
  1738    1755    1
  1738    1758    1
  1739    1743    1
  1739    1744    1
  1739    1748    1
  1739    1751    1
  1739    1752    1
  1739    1757    1
  1739    1758    1
  1740    1745    1
  1740    1746    1
  1740    1749    1
  1740    1753    1
  1740    1754    1
  1740    1756    1
  1740    2607    1
  1741    1743    1
  1741    1744    1
  1741    1748    1
  1741    1751    1
  1741    1752    1
  1741    1755    1
  1742    1747    1
  1742    1748    1
  1742    1751    1
  1742    1753    1
  1742    1754    1
  1742    1757    1
  1742    2606    1
  1743    1745    1
  1743    1746    1
  1743    1750    1
  1743    1752    1
  1743    1756    1
  1744    1749    1
  1744    1751    1
  1744    1756    1
  1744    2601    1
  1744    2607    1
  1745    1747    1
  1745    1748    1
  1745    1750    1
  1745    1753    1
  1745    1754    1
  1745    1755    1
  1745    2606    1
  1746    1751    1
  1746    1753    1
  1746    1754    1
  1746    1755    1
  1746    2600    1
  1746    2602    1
  1746    2608    1
  1747    1749    1
  1747    1750    1
  1747    1752    1
  1747    2601    1
  1747    2607    1
  1748    1753    1
  1748    1754    1
  1748    2599    1
  1748    2601    1
  1748    2609    1
  1749    1751    1
  1749    1752    1
  1749    2606    1
  1749    2608    1
  1750    1755    1
  1750    2606    1
  1750    2608    1
  1751    1753    1
  1751    1754    1
  1751    2607    1
  1752    1755    1
  1752    2606    1
  1752    2607    1
  1756    1758    1
  1756    1759    1
  1758    1761    1
  1758    1762    1
  1758    1765    1
  1759    1763    1
  1759    1792    1
  1759    1794    1
  1760    1764    1
  1760    1765    1
  1760    1787    1
  1760    1793    1
  1761    1763    1
  1761    1792    1
  1762    1766    1
  1762    1767    1
  1762    1785    1
  1762    1788    1
  1762    1789    1
  1762    1794    1
  1763    1768    1
  1763    1769    1
  1763    1772    1
  1763    1786    1
  1763    1790    1
  1763    1791    1
  1763    1793    1
  1764    1766    1
  1764    1767    1
  1764    1785    1
  1764    1788    1
  1764    1789    1
  1764    1792    1
  1765    1770    1
  1765    1771    1
  1765    1785    1
  1765    1788    1
  1765    1790    1
  1765    1791    1
  1765    1794    1
  1766    1768    1
  1766    1769    1
  1766    1787    1
  1766    1789    1
  1766    1793    1
  1767    1772    1
  1767    1780    1
  1767    1786    1
  1767    1788    1
  1767    1793    1
  1768    1770    1
  1768    1771    1
  1768    1785    1
  1768    1787    1
  1768    1790    1
  1768    1791    1
  1768    1792    1
  1769    1773    1
  1769    1779    1
  1769    1781    1
  1769    1788    1
  1769    1790    1
  1769    1791    1
  1769    1792    1
  1770    1772    1
  1770    1780    1
  1770    1786    1
  1770    1787    1
  1770    1789    1
  1771    1774    1
  1771    1778    1
  1771    1782    1
  1771    1783    1
  1771    1784    1
  1771    1786    1
  1771    1787    1
  1771    1789    1
  1771    2643    1
  1772    1775    1
  1772    1776    1
  1772    1777    1
  1772    1779    1
  1772    1781    1
  1772    1788    1
  1772    1789    1
  1772    2645    1
  1773    1780    1
  1773    1786    1
  1773    1787    1
  1773    2643    1
  1773    2646    1
  1773    2647    1
  1774    1779    1
  1774    1785    1
  1774    2645    1
  1775    1778    1
  1776    1778    1
  1777    1778    1
  1778    1781    1
  1778    1785    1
  1778    2637    1
  1778    2641    1
  1778    2644    1
  1778    2648    1
  1778    2649    1
  1779    1782    1
  1779    1783    1
  1779    1784    1
  1779    2639    1
  1779    2642    1
  1779    2646    1
  1779    2647    1
  1779    2649    1
  1780    1785    1
  1780    2641    1
  1780    2644    1
  1780    2645    1
  1781    2643    1
  1785    1790    1
  1785    1791    1
  1786    1788    1
  1786    1789    1
  1787    1792    1
  1788    1790    1
  1788    1791    1
  1789    1792    1
  1795    1801    1
  1795    1802    1
  1795    1803    1
  1795    1805    1
  1795    1825    1
  1795    1827    1
  1795    1829    1
  1796    1800    1
  1796    1804    1
  1796    1828    1
  1797    1800    1
  1797    1804    1
  1797    1828    1
  1798    1800    1
  1798    1804    1
  1798    1828    1
  1799    1806    1
  1799    1824    1
  1799    1826    1
  1799    1830    1
  1799    1831    1
  1799    1862    1
  1800    1805    1
  1800    1825    1
  1800    1827    1
  1800    1829    1
  1801    1804    1
  1801    1828    1
  1802    1804    1
  1802    1828    1
  1803    1804    1
  1803    1828    1
  1804    1807    1
  1804    1808    1
  1804    1811    1
  1804    1829    1
  1804    1862    1
  1805    1809    1
  1805    1824    1
  1805    1826    1
  1805    1829    1
  1805    1861    1
  1805    1863    1
  1806    1810    1
  1806    1811    1
  1806    1819    1
  1806    1825    1
  1806    1828    1
  1806    1862    1
  1807    1809    1
  1807    1824    1
  1807    1827    1
  1808    1812    1
  1808    1813    1
  1808    1817    1
  1808    1820    1
  1808    1821    1
  1808    1826    1
  1808    1827    1
  1809    1814    1
  1809    1815    1
  1809    1818    1
  1809    1822    1
  1809    1823    1
  1809    1825    1
  1809    3987    1
  1810    1812    1
  1810    1813    1
  1810    1817    1
  1810    1820    1
  1810    1821    1
  1810    1824    1
  1811    1816    1
  1811    1817    1
  1811    1820    1
  1811    1822    1
  1811    1823    1
  1811    1826    1
  1811    3986    1
  1812    1814    1
  1812    1815    1
  1812    1819    1
  1812    1821    1
  1812    1825    1
  1813    1818    1
  1813    1820    1
  1813    1825    1
  1813    3981    1
  1813    3987    1
  1814    1816    1
  1814    1817    1
  1814    1819    1
  1814    1822    1
  1814    1823    1
  1814    1824    1
  1814    3986    1
  1815    1820    1
  1815    1822    1
  1815    1823    1
  1815    1824    1
  1815    3980    1
  1815    3982    1
  1815    3988    1
  1816    1818    1
  1816    1819    1
  1816    1821    1
  1816    3981    1
  1816    3987    1
  1817    1822    1
  1817    1823    1
  1817    3979    1
  1817    3981    1
  1817    3989    1
  1818    1820    1
  1818    1821    1
  1818    3986    1
  1818    3988    1
  1819    1824    1
  1819    3986    1
  1819    3988    1
  1820    1822    1
  1820    1823    1
  1820    3987    1
  1821    1824    1
  1821    3986    1
  1821    3987    1
  1825    1827    1
  1825    1828    1
  1827    1830    1
  1827    1831    1
  1827    1834    1
  1828    1832    1
  1828    1861    1
  1828    1863    1
  1829    1833    1
  1829    1834    1
  1829    1856    1
  1829    1862    1
  1830    1832    1
  1830    1861    1
  1831    1835    1
  1831    1836    1
  1831    1854    1
  1831    1857    1
  1831    1858    1
  1831    1863    1
  1832    1837    1
  1832    1838    1
  1832    1841    1
  1832    1855    1
  1832    1859    1
  1832    1860    1
  1832    1862    1
  1833    1835    1
  1833    1836    1
  1833    1854    1
  1833    1857    1
  1833    1858    1
  1833    1861    1
  1834    1839    1
  1834    1840    1
  1834    1854    1
  1834    1857    1
  1834    1859    1
  1834    1860    1
  1834    1863    1
  1835    1837    1
  1835    1838    1
  1835    1856    1
  1835    1858    1
  1835    1862    1
  1836    1841    1
  1836    1849    1
  1836    1855    1
  1836    1857    1
  1836    1862    1
  1837    1839    1
  1837    1840    1
  1837    1854    1
  1837    1856    1
  1837    1859    1
  1837    1860    1
  1837    1861    1
  1838    1842    1
  1838    1848    1
  1838    1850    1
  1838    1857    1
  1838    1859    1
  1838    1860    1
  1838    1861    1
  1839    1841    1
  1839    1849    1
  1839    1855    1
  1839    1856    1
  1839    1858    1
  1840    1843    1
  1840    1847    1
  1840    1851    1
  1840    1852    1
  1840    1853    1
  1840    1855    1
  1840    1856    1
  1840    1858    1
  1841    1844    1
  1841    1845    1
  1841    1846    1
  1841    1848    1
  1841    1850    1
  1841    1857    1
  1841    1858    1
  1842    1849    1
  1842    1855    1
  1842    1856    1
  1843    1848    1
  1843    1854    1
  1844    1847    1
  1845    1847    1
  1846    1847    1
  1847    1850    1
  1847    1854    1
  1848    1851    1
  1848    1852    1
  1848    1853    1
  1849    1854    1
  1854    1859    1
  1854    1860    1
  1855    1857    1
  1855    1858    1
  1856    1861    1
  1857    1859    1
  1857    1860    1
  1858    1861    1
  1864    1870    1
  1864    1871    1
  1864    1872    1
  1864    1874    1
  1864    1894    1
  1864    1896    1
  1864    1898    1
  1865    1869    1
  1865    1873    1
  1865    1897    1
  1866    1869    1
  1866    1873    1
  1866    1897    1
  1867    1869    1
  1867    1873    1
  1867    1897    1
  1868    1875    1
  1868    1893    1
  1868    1895    1
  1868    1899    1
  1868    1900    1
  1868    1931    1
  1869    1874    1
  1869    1894    1
  1869    1896    1
  1869    1898    1
  1870    1873    1
  1870    1897    1
  1871    1873    1
  1871    1897    1
  1872    1873    1
  1872    1897    1
  1873    1876    1
  1873    1877    1
  1873    1880    1
  1873    1898    1
  1873    1931    1
  1874    1878    1
  1874    1893    1
  1874    1895    1
  1874    1898    1
  1874    1930    1
  1874    1932    1
  1875    1879    1
  1875    1880    1
  1875    1888    1
  1875    1894    1
  1875    1897    1
  1875    1931    1
  1876    1878    1
  1876    1893    1
  1876    1896    1
  1877    1881    1
  1877    1882    1
  1877    1886    1
  1877    1889    1
  1877    1890    1
  1877    1895    1
  1877    1896    1
  1878    1883    1
  1878    1884    1
  1878    1887    1
  1878    1891    1
  1878    1892    1
  1878    1894    1
  1878    2538    1
  1879    1881    1
  1879    1882    1
  1879    1886    1
  1879    1889    1
  1879    1890    1
  1879    1893    1
  1880    1885    1
  1880    1886    1
  1880    1889    1
  1880    1891    1
  1880    1892    1
  1880    1895    1
  1880    2537    1
  1881    1883    1
  1881    1884    1
  1881    1888    1
  1881    1890    1
  1881    1894    1
  1882    1887    1
  1882    1889    1
  1882    1894    1
  1882    2532    1
  1882    2538    1
  1883    1885    1
  1883    1886    1
  1883    1888    1
  1883    1891    1
  1883    1892    1
  1883    1893    1
  1883    2537    1
  1884    1889    1
  1884    1891    1
  1884    1892    1
  1884    1893    1
  1884    2531    1
  1884    2533    1
  1884    2539    1
  1885    1887    1
  1885    1888    1
  1885    1890    1
  1885    2532    1
  1885    2538    1
  1886    1891    1
  1886    1892    1
  1886    2530    1
  1886    2532    1
  1886    2540    1
  1887    1889    1
  1887    1890    1
  1887    2537    1
  1887    2539    1
  1888    1893    1
  1888    2537    1
  1888    2539    1
  1889    1891    1
  1889    1892    1
  1889    2538    1
  1890    1893    1
  1890    2537    1
  1890    2538    1
  1894    1896    1
  1894    1897    1
  1896    1899    1
  1896    1900    1
  1896    1903    1
  1897    1901    1
  1897    1930    1
  1897    1932    1
  1898    1902    1
  1898    1903    1
  1898    1925    1
  1898    1931    1
  1899    1901    1
  1899    1930    1
  1900    1904    1
  1900    1905    1
  1900    1923    1
  1900    1926    1
  1900    1927    1
  1900    1932    1
  1901    1906    1
  1901    1907    1
  1901    1910    1
  1901    1924    1
  1901    1928    1
  1901    1929    1
  1901    1931    1
  1902    1904    1
  1902    1905    1
  1902    1923    1
  1902    1926    1
  1902    1927    1
  1902    1930    1
  1903    1908    1
  1903    1909    1
  1903    1923    1
  1903    1926    1
  1903    1928    1
  1903    1929    1
  1903    1932    1
  1904    1906    1
  1904    1907    1
  1904    1925    1
  1904    1927    1
  1904    1931    1
  1905    1910    1
  1905    1918    1
  1905    1924    1
  1905    1926    1
  1905    1931    1
  1906    1908    1
  1906    1909    1
  1906    1923    1
  1906    1925    1
  1906    1928    1
  1906    1929    1
  1906    1930    1
  1907    1911    1
  1907    1917    1
  1907    1919    1
  1907    1926    1
  1907    1928    1
  1907    1929    1
  1907    1930    1
  1908    1910    1
  1908    1918    1
  1908    1924    1
  1908    1925    1
  1908    1927    1
  1909    1912    1
  1909    1916    1
  1909    1920    1
  1909    1921    1
  1909    1922    1
  1909    1924    1
  1909    1925    1
  1909    1927    1
  1909    5681    1
  1910    1913    1
  1910    1914    1
  1910    1915    1
  1910    1917    1
  1910    1919    1
  1910    1926    1
  1910    1927    1
  1910    5679    1
  1911    1918    1
  1911    1924    1
  1911    1925    1
  1911    5677    1
  1911    5680    1
  1911    5681    1
  1912    1917    1
  1912    1923    1
  1912    5679    1
  1913    1916    1
  1914    1916    1
  1915    1916    1
  1916    1919    1
  1916    1923    1
  1916    5675    1
  1916    5678    1
  1916    5682    1
  1916    5683    1
  1916    5685    1
  1917    1920    1
  1917    1921    1
  1917    1922    1
  1917    5673    1
  1917    5677    1
  1917    5680    1
  1917    5684    1
  1917    5685    1
  1918    1923    1
  1918    5679    1
  1918    5682    1
  1918    5683    1
  1919    5681    1
  1923    1928    1
  1923    1929    1
  1924    1926    1
  1924    1927    1
  1925    1930    1
  1926    1928    1
  1926    1929    1
  1927    1930    1
  1933    1939    1
  1933    1940    1
  1933    1941    1
  1933    1943    1
  1933    1963    1
  1933    1965    1
  1933    1967    1
  1934    1938    1
  1934    1942    1
  1934    1966    1
  1935    1938    1
  1935    1942    1
  1935    1966    1
  1936    1938    1
  1936    1942    1
  1936    1966    1
  1937    1944    1
  1937    1962    1
  1937    1964    1
  1937    1968    1
  1937    1969    1
  1937    2000    1
  1938    1943    1
  1938    1963    1
  1938    1965    1
  1938    1967    1
  1939    1942    1
  1939    1966    1
  1940    1942    1
  1940    1966    1
  1941    1942    1
  1941    1966    1
  1942    1945    1
  1942    1946    1
  1942    1949    1
  1942    1967    1
  1942    2000    1
  1943    1947    1
  1943    1962    1
  1943    1964    1
  1943    1967    1
  1943    1999    1
  1943    2001    1
  1944    1948    1
  1944    1949    1
  1944    1957    1
  1944    1963    1
  1944    1966    1
  1944    2000    1
  1945    1947    1
  1945    1962    1
  1945    1965    1
  1946    1950    1
  1946    1951    1
  1946    1955    1
  1946    1958    1
  1946    1959    1
  1946    1964    1
  1946    1965    1
  1947    1952    1
  1947    1953    1
  1947    1956    1
  1947    1960    1
  1947    1961    1
  1947    1963    1
  1947    6126    1
  1948    1950    1
  1948    1951    1
  1948    1955    1
  1948    1958    1
  1948    1959    1
  1948    1962    1
  1949    1954    1
  1949    1955    1
  1949    1958    1
  1949    1960    1
  1949    1961    1
  1949    1964    1
  1949    6125    1
  1950    1952    1
  1950    1953    1
  1950    1957    1
  1950    1959    1
  1950    1963    1
  1951    1956    1
  1951    1958    1
  1951    1963    1
  1951    6120    1
  1951    6126    1
  1952    1954    1
  1952    1955    1
  1952    1957    1
  1952    1960    1
  1952    1961    1
  1952    1962    1
  1952    6125    1
  1953    1958    1
  1953    1960    1
  1953    1961    1
  1953    1962    1
  1953    6119    1
  1953    6121    1
  1953    6127    1
  1954    1956    1
  1954    1957    1
  1954    1959    1
  1954    6120    1
  1954    6126    1
  1955    1960    1
  1955    1961    1
  1955    6118    1
  1955    6120    1
  1955    6128    1
  1956    1958    1
  1956    1959    1
  1956    6125    1
  1956    6127    1
  1957    1962    1
  1957    6125    1
  1957    6127    1
  1958    1960    1
  1958    1961    1
  1958    6126    1
  1959    1962    1
  1959    6125    1
  1959    6126    1
  1963    1965    1
  1963    1966    1
  1965    1968    1
  1965    1969    1
  1965    1972    1
  1966    1970    1
  1966    1999    1
  1966    2001    1
  1967    1971    1
  1967    1972    1
  1967    1994    1
  1967    2000    1
  1968    1970    1
  1968    1999    1
  1969    1973    1
  1969    1974    1
  1969    1992    1
  1969    1995    1
  1969    1996    1
  1969    2001    1
  1970    1975    1
  1970    1976    1
  1970    1979    1
  1970    1993    1
  1970    1997    1
  1970    1998    1
  1970    2000    1
  1971    1973    1
  1971    1974    1
  1971    1992    1
  1971    1995    1
  1971    1996    1
  1971    1999    1
  1972    1977    1
  1972    1978    1
  1972    1992    1
  1972    1995    1
  1972    1997    1
  1972    1998    1
  1972    2001    1
  1973    1975    1
  1973    1976    1
  1973    1994    1
  1973    1996    1
  1973    2000    1
  1974    1979    1
  1974    1987    1
  1974    1993    1
  1974    1995    1
  1974    2000    1
  1975    1977    1
  1975    1978    1
  1975    1992    1
  1975    1994    1
  1975    1997    1
  1975    1998    1
  1975    1999    1
  1976    1980    1
  1976    1986    1
  1976    1988    1
  1976    1995    1
  1976    1997    1
  1976    1998    1
  1976    1999    1
  1977    1979    1
  1977    1987    1
  1977    1993    1
  1977    1994    1
  1977    1996    1
  1978    1981    1
  1978    1985    1
  1978    1989    1
  1978    1990    1
  1978    1991    1
  1978    1993    1
  1978    1994    1
  1978    1996    1
  1978    4092    1
  1979    1982    1
  1979    1983    1
  1979    1984    1
  1979    1986    1
  1979    1988    1
  1979    1995    1
  1979    1996    1
  1979    4094    1
  1980    1987    1
  1980    1993    1
  1980    1994    1
  1980    4092    1
  1980    4095    1
  1980    4096    1
  1981    1986    1
  1981    1992    1
  1981    4094    1
  1982    1985    1
  1983    1985    1
  1984    1985    1
  1985    1988    1
  1985    1992    1
  1985    4086    1
  1985    4090    1
  1985    4093    1
  1985    4097    1
  1985    4098    1
  1986    1989    1
  1986    1990    1
  1986    1991    1
  1986    4088    1
  1986    4091    1
  1986    4095    1
  1986    4096    1
  1986    4098    1
  1987    1992    1
  1987    4090    1
  1987    4093    1
  1987    4094    1
  1988    4092    1
  1992    1997    1
  1992    1998    1
  1993    1995    1
  1993    1996    1
  1994    1999    1
  1995    1997    1
  1995    1998    1
  1996    1999    1
  2002    2008    1
  2002    2009    1
  2002    2010    1
  2002    2012    1
  2002    2032    1
  2002    2034    1
  2002    2036    1
  2003    2007    1
  2003    2011    1
  2003    2035    1
  2004    2007    1
  2004    2011    1
  2004    2035    1
  2005    2007    1
  2005    2011    1
  2005    2035    1
  2006    2013    1
  2006    2031    1
  2006    2033    1
  2006    2037    1
  2006    2038    1
  2006    2069    1
  2007    2012    1
  2007    2032    1
  2007    2034    1
  2007    2036    1
  2008    2011    1
  2008    2035    1
  2009    2011    1
  2009    2035    1
  2010    2011    1
  2010    2035    1
  2011    2014    1
  2011    2015    1
  2011    2018    1
  2011    2036    1
  2011    2069    1
  2012    2016    1
  2012    2031    1
  2012    2033    1
  2012    2036    1
  2012    2068    1
  2012    2070    1
  2013    2017    1
  2013    2018    1
  2013    2026    1
  2013    2032    1
  2013    2035    1
  2013    2069    1
  2014    2016    1
  2014    2031    1
  2014    2034    1
  2015    2019    1
  2015    2020    1
  2015    2024    1
  2015    2027    1
  2015    2028    1
  2015    2033    1
  2015    2034    1
  2016    2021    1
  2016    2022    1
  2016    2025    1
  2016    2029    1
  2016    2030    1
  2016    2032    1
  2017    2019    1
  2017    2020    1
  2017    2024    1
  2017    2027    1
  2017    2028    1
  2017    2031    1
  2018    2023    1
  2018    2024    1
  2018    2027    1
  2018    2029    1
  2018    2030    1
  2018    2033    1
  2019    2021    1
  2019    2022    1
  2019    2026    1
  2019    2028    1
  2019    2032    1
  2020    2025    1
  2020    2027    1
  2020    2032    1
  2021    2023    1
  2021    2024    1
  2021    2026    1
  2021    2029    1
  2021    2030    1
  2021    2031    1
  2022    2027    1
  2022    2029    1
  2022    2030    1
  2022    2031    1
  2023    2025    1
  2023    2026    1
  2023    2028    1
  2024    2029    1
  2024    2030    1
  2025    2027    1
  2025    2028    1
  2026    2031    1
  2027    2029    1
  2027    2030    1
  2028    2031    1
  2032    2034    1
  2032    2035    1
  2034    2037    1
  2034    2038    1
  2034    2041    1
  2035    2039    1
  2035    2068    1
  2035    2070    1
  2036    2040    1
  2036    2041    1
  2036    2063    1
  2036    2069    1
  2037    2039    1
  2037    2068    1
  2038    2042    1
  2038    2043    1
  2038    2061    1
  2038    2064    1
  2038    2065    1
  2038    2070    1
  2039    2044    1
  2039    2045    1
  2039    2048    1
  2039    2062    1
  2039    2066    1
  2039    2067    1
  2039    2069    1
  2040    2042    1
  2040    2043    1
  2040    2061    1
  2040    2064    1
  2040    2065    1
  2040    2068    1
  2041    2046    1
  2041    2047    1
  2041    2061    1
  2041    2064    1
  2041    2066    1
  2041    2067    1
  2041    2070    1
  2042    2044    1
  2042    2045    1
  2042    2063    1
  2042    2065    1
  2042    2069    1
  2043    2048    1
  2043    2056    1
  2043    2062    1
  2043    2064    1
  2043    2069    1
  2044    2046    1
  2044    2047    1
  2044    2061    1
  2044    2063    1
  2044    2066    1
  2044    2067    1
  2044    2068    1
  2045    2049    1
  2045    2055    1
  2045    2057    1
  2045    2064    1
  2045    2066    1
  2045    2067    1
  2045    2068    1
  2046    2048    1
  2046    2056    1
  2046    2062    1
  2046    2063    1
  2046    2065    1
  2047    2050    1
  2047    2054    1
  2047    2058    1
  2047    2059    1
  2047    2060    1
  2047    2062    1
  2047    2063    1
  2047    2065    1
  2047    3749    1
  2048    2051    1
  2048    2052    1
  2048    2053    1
  2048    2055    1
  2048    2057    1
  2048    2064    1
  2048    2065    1
  2048    3747    1
  2049    2056    1
  2049    2062    1
  2049    2063    1
  2049    3745    1
  2049    3748    1
  2049    3749    1
  2050    2055    1
  2050    2061    1
  2050    3747    1
  2051    2054    1
  2052    2054    1
  2053    2054    1
  2054    2057    1
  2054    2061    1
  2054    3743    1
  2054    3746    1
  2054    3750    1
  2054    3751    1
  2054    3753    1
  2055    2058    1
  2055    2059    1
  2055    2060    1
  2055    3741    1
  2055    3745    1
  2055    3748    1
  2055    3752    1
  2055    3753    1
  2056    2061    1
  2056    3747    1
  2056    3750    1
  2056    3751    1
  2057    3749    1
  2061    2066    1
  2061    2067    1
  2062    2064    1
  2062    2065    1
  2063    2068    1
  2064    2066    1
  2064    2067    1
  2065    2068    1
  2071    2077    1
  2071    2078    1
  2071    2079    1
  2071    2081    1
  2071    2101    1
  2071    2103    1
  2071    2105    1
  2072    2076    1
  2072    2080    1
  2072    2104    1
  2073    2076    1
  2073    2080    1
  2073    2104    1
  2074    2076    1
  2074    2080    1
  2074    2104    1
  2075    2082    1
  2075    2100    1
  2075    2102    1
  2075    2106    1
  2075    2107    1
  2075    2138    1
  2076    2081    1
  2076    2101    1
  2076    2103    1
  2076    2105    1
  2077    2080    1
  2077    2104    1
  2078    2080    1
  2078    2104    1
  2079    2080    1
  2079    2104    1
  2080    2083    1
  2080    2084    1
  2080    2087    1
  2080    2105    1
  2080    2138    1
  2081    2085    1
  2081    2100    1
  2081    2102    1
  2081    2105    1
  2081    2137    1
  2081    2139    1
  2082    2086    1
  2082    2087    1
  2082    2095    1
  2082    2101    1
  2082    2104    1
  2082    2138    1
  2083    2085    1
  2083    2100    1
  2083    2103    1
  2084    2088    1
  2084    2089    1
  2084    2093    1
  2084    2096    1
  2084    2097    1
  2084    2102    1
  2084    2103    1
  2085    2090    1
  2085    2091    1
  2085    2094    1
  2085    2098    1
  2085    2099    1
  2085    2101    1
  2086    2088    1
  2086    2089    1
  2086    2093    1
  2086    2096    1
  2086    2097    1
  2086    2100    1
  2087    2092    1
  2087    2093    1
  2087    2096    1
  2087    2098    1
  2087    2099    1
  2087    2102    1
  2088    2090    1
  2088    2091    1
  2088    2095    1
  2088    2097    1
  2088    2101    1
  2089    2094    1
  2089    2096    1
  2089    2101    1
  2090    2092    1
  2090    2093    1
  2090    2095    1
  2090    2098    1
  2090    2099    1
  2090    2100    1
  2091    2096    1
  2091    2098    1
  2091    2099    1
  2091    2100    1
  2092    2094    1
  2092    2095    1
  2092    2097    1
  2093    2098    1
  2093    2099    1
  2094    2096    1
  2094    2097    1
  2095    2100    1
  2096    2098    1
  2096    2099    1
  2097    2100    1
  2101    2103    1
  2101    2104    1
  2103    2106    1
  2103    2107    1
  2103    2110    1
  2104    2108    1
  2104    2137    1
  2104    2139    1
  2105    2109    1
  2105    2110    1
  2105    2132    1
  2105    2138    1
  2106    2108    1
  2106    2137    1
  2107    2111    1
  2107    2112    1
  2107    2130    1
  2107    2133    1
  2107    2134    1
  2107    2139    1
  2108    2113    1
  2108    2114    1
  2108    2117    1
  2108    2131    1
  2108    2135    1
  2108    2136    1
  2108    2138    1
  2109    2111    1
  2109    2112    1
  2109    2130    1
  2109    2133    1
  2109    2134    1
  2109    2137    1
  2110    2115    1
  2110    2116    1
  2110    2130    1
  2110    2133    1
  2110    2135    1
  2110    2136    1
  2110    2139    1
  2111    2113    1
  2111    2114    1
  2111    2132    1
  2111    2134    1
  2111    2138    1
  2112    2117    1
  2112    2125    1
  2112    2131    1
  2112    2133    1
  2112    2138    1
  2113    2115    1
  2113    2116    1
  2113    2130    1
  2113    2132    1
  2113    2135    1
  2113    2136    1
  2113    2137    1
  2114    2118    1
  2114    2124    1
  2114    2126    1
  2114    2133    1
  2114    2135    1
  2114    2136    1
  2114    2137    1
  2115    2117    1
  2115    2125    1
  2115    2131    1
  2115    2132    1
  2115    2134    1
  2116    2119    1
  2116    2123    1
  2116    2127    1
  2116    2128    1
  2116    2129    1
  2116    2131    1
  2116    2132    1
  2116    2134    1
  2116    5127    1
  2117    2120    1
  2117    2121    1
  2117    2122    1
  2117    2124    1
  2117    2126    1
  2117    2133    1
  2117    2134    1
  2117    5129    1
  2118    2125    1
  2118    2131    1
  2118    2132    1
  2118    5127    1
  2118    5130    1
  2118    5131    1
  2119    2124    1
  2119    2130    1
  2119    5129    1
  2120    2123    1
  2121    2123    1
  2122    2123    1
  2123    2126    1
  2123    2130    1
  2123    5121    1
  2123    5125    1
  2123    5128    1
  2123    5132    1
  2123    5133    1
  2124    2127    1
  2124    2128    1
  2124    2129    1
  2124    5123    1
  2124    5126    1
  2124    5130    1
  2124    5131    1
  2124    5133    1
  2125    2130    1
  2125    5125    1
  2125    5128    1
  2125    5129    1
  2126    5127    1
  2130    2135    1
  2130    2136    1
  2131    2133    1
  2131    2134    1
  2132    2137    1
  2133    2135    1
  2133    2136    1
  2134    2137    1
  2140    2146    1
  2140    2147    1
  2140    2148    1
  2140    2150    1
  2140    2170    1
  2140    2172    1
  2140    2174    1
  2141    2145    1
  2141    2149    1
  2141    2173    1
  2142    2145    1
  2142    2149    1
  2142    2173    1
  2143    2145    1
  2143    2149    1
  2143    2173    1
  2144    2151    1
  2144    2169    1
  2144    2171    1
  2144    2175    1
  2144    2176    1
  2144    2207    1
  2145    2150    1
  2145    2170    1
  2145    2172    1
  2145    2174    1
  2146    2149    1
  2146    2173    1
  2147    2149    1
  2147    2173    1
  2148    2149    1
  2148    2173    1
  2149    2152    1
  2149    2153    1
  2149    2156    1
  2149    2174    1
  2149    2207    1
  2150    2154    1
  2150    2169    1
  2150    2171    1
  2150    2174    1
  2150    2206    1
  2150    2208    1
  2151    2155    1
  2151    2156    1
  2151    2164    1
  2151    2170    1
  2151    2173    1
  2151    2207    1
  2152    2154    1
  2152    2169    1
  2152    2172    1
  2153    2157    1
  2153    2158    1
  2153    2162    1
  2153    2165    1
  2153    2166    1
  2153    2171    1
  2153    2172    1
  2154    2159    1
  2154    2160    1
  2154    2163    1
  2154    2167    1
  2154    2168    1
  2154    2170    1
  2154    3642    1
  2155    2157    1
  2155    2158    1
  2155    2162    1
  2155    2165    1
  2155    2166    1
  2155    2169    1
  2156    2161    1
  2156    2162    1
  2156    2165    1
  2156    2167    1
  2156    2168    1
  2156    2171    1
  2156    3641    1
  2157    2159    1
  2157    2160    1
  2157    2164    1
  2157    2166    1
  2157    2170    1
  2158    2163    1
  2158    2165    1
  2158    2170    1
  2158    3636    1
  2158    3642    1
  2159    2161    1
  2159    2162    1
  2159    2164    1
  2159    2167    1
  2159    2168    1
  2159    2169    1
  2159    3641    1
  2160    2165    1
  2160    2167    1
  2160    2168    1
  2160    2169    1
  2160    3635    1
  2160    3637    1
  2160    3643    1
  2161    2163    1
  2161    2164    1
  2161    2166    1
  2161    3636    1
  2161    3642    1
  2162    2167    1
  2162    2168    1
  2162    3634    1
  2162    3636    1
  2162    3644    1
  2163    2165    1
  2163    2166    1
  2163    3641    1
  2163    3643    1
  2164    2169    1
  2164    3641    1
  2164    3643    1
  2165    2167    1
  2165    2168    1
  2165    3642    1
  2166    2169    1
  2166    3641    1
  2166    3642    1
  2170    2172    1
  2170    2173    1
  2172    2175    1
  2172    2176    1
  2172    2179    1
  2173    2177    1
  2173    2206    1
  2173    2208    1
  2174    2178    1
  2174    2179    1
  2174    2201    1
  2174    2207    1
  2175    2177    1
  2175    2206    1
  2176    2180    1
  2176    2181    1
  2176    2199    1
  2176    2202    1
  2176    2203    1
  2176    2208    1
  2177    2182    1
  2177    2183    1
  2177    2186    1
  2177    2200    1
  2177    2204    1
  2177    2205    1
  2177    2207    1
  2178    2180    1
  2178    2181    1
  2178    2199    1
  2178    2202    1
  2178    2203    1
  2178    2206    1
  2179    2184    1
  2179    2185    1
  2179    2199    1
  2179    2202    1
  2179    2204    1
  2179    2205    1
  2179    2208    1
  2180    2182    1
  2180    2183    1
  2180    2201    1
  2180    2203    1
  2180    2207    1
  2181    2186    1
  2181    2194    1
  2181    2200    1
  2181    2202    1
  2181    2207    1
  2182    2184    1
  2182    2185    1
  2182    2199    1
  2182    2201    1
  2182    2204    1
  2182    2205    1
  2182    2206    1
  2183    2187    1
  2183    2193    1
  2183    2195    1
  2183    2202    1
  2183    2204    1
  2183    2205    1
  2183    2206    1
  2184    2186    1
  2184    2194    1
  2184    2200    1
  2184    2201    1
  2184    2203    1
  2185    2188    1
  2185    2192    1
  2185    2196    1
  2185    2197    1
  2185    2198    1
  2185    2200    1
  2185    2201    1
  2185    2203    1
  2185    4853    1
  2186    2189    1
  2186    2190    1
  2186    2191    1
  2186    2193    1
  2186    2195    1
  2186    2202    1
  2186    2203    1
  2186    4851    1
  2187    2194    1
  2187    2200    1
  2187    2201    1
  2187    4849    1
  2187    4852    1
  2187    4853    1
  2188    2193    1
  2188    2199    1
  2188    4851    1
  2189    2192    1
  2190    2192    1
  2191    2192    1
  2192    2195    1
  2192    2199    1
  2192    4847    1
  2192    4850    1
  2192    4854    1
  2192    4855    1
  2192    4857    1
  2193    2196    1
  2193    2197    1
  2193    2198    1
  2193    4845    1
  2193    4849    1
  2193    4852    1
  2193    4856    1
  2193    4857    1
  2194    2199    1
  2194    4851    1
  2194    4854    1
  2194    4855    1
  2195    4853    1
  2199    2204    1
  2199    2205    1
  2200    2202    1
  2200    2203    1
  2201    2206    1
  2202    2204    1
  2202    2205    1
  2203    2206    1
  2209    2215    1
  2209    2216    1
  2209    2217    1
  2209    2219    1
  2209    2239    1
  2209    2241    1
  2209    2243    1
  2210    2214    1
  2210    2218    1
  2210    2242    1
  2211    2214    1
  2211    2218    1
  2211    2242    1
  2212    2214    1
  2212    2218    1
  2212    2242    1
  2213    2220    1
  2213    2238    1
  2213    2240    1
  2213    2244    1
  2213    2245    1
  2213    2276    1
  2214    2219    1
  2214    2239    1
  2214    2241    1
  2214    2243    1
  2215    2218    1
  2215    2242    1
  2216    2218    1
  2216    2242    1
  2217    2218    1
  2217    2242    1
  2218    2221    1
  2218    2222    1
  2218    2225    1
  2218    2243    1
  2218    2276    1
  2219    2223    1
  2219    2238    1
  2219    2240    1
  2219    2243    1
  2219    2275    1
  2219    2277    1
  2220    2224    1
  2220    2225    1
  2220    2233    1
  2220    2239    1
  2220    2242    1
  2220    2276    1
  2221    2223    1
  2221    2238    1
  2221    2241    1
  2222    2226    1
  2222    2227    1
  2222    2231    1
  2222    2234    1
  2222    2235    1
  2222    2240    1
  2222    2241    1
  2223    2228    1
  2223    2229    1
  2223    2232    1
  2223    2236    1
  2223    2237    1
  2223    2239    1
  2223    5090    1
  2224    2226    1
  2224    2227    1
  2224    2231    1
  2224    2234    1
  2224    2235    1
  2224    2238    1
  2225    2230    1
  2225    2231    1
  2225    2234    1
  2225    2236    1
  2225    2237    1
  2225    2240    1
  2225    5091    1
  2226    2228    1
  2226    2229    1
  2226    2233    1
  2226    2235    1
  2226    2239    1
  2227    2232    1
  2227    2234    1
  2227    2239    1
  2227    5090    1
  2227    5092    1
  2228    2230    1
  2228    2231    1
  2228    2233    1
  2228    2236    1
  2228    2237    1
  2228    2238    1
  2228    5091    1
  2229    2234    1
  2229    2236    1
  2229    2237    1
  2229    2238    1
  2229    5083    1
  2229    5085    1
  2229    5093    1
  2230    2232    1
  2230    2233    1
  2230    2235    1
  2230    5090    1
  2230    5092    1
  2231    2236    1
  2231    2237    1
  2231    5084    1
  2231    5086    1
  2231    5092    1
  2232    2234    1
  2232    2235    1
  2232    5085    1
  2232    5091    1
  2233    2238    1
  2233    5085    1
  2233    5091    1
  2234    2236    1
  2234    2237    1
  2234    5090    1
  2235    2238    1
  2235    5090    1
  2235    5091    1
  2239    2241    1
  2239    2242    1
  2241    2244    1
  2241    2245    1
  2241    2248    1
  2242    2246    1
  2242    2275    1
  2242    2277    1
  2243    2247    1
  2243    2248    1
  2243    2270    1
  2243    2276    1
  2244    2246    1
  2244    2275    1
  2245    2249    1
  2245    2250    1
  2245    2268    1
  2245    2271    1
  2245    2272    1
  2245    2277    1
  2246    2251    1
  2246    2252    1
  2246    2255    1
  2246    2269    1
  2246    2273    1
  2246    2274    1
  2246    2276    1
  2247    2249    1
  2247    2250    1
  2247    2268    1
  2247    2271    1
  2247    2272    1
  2247    2275    1
  2248    2253    1
  2248    2254    1
  2248    2268    1
  2248    2271    1
  2248    2273    1
  2248    2274    1
  2248    2277    1
  2249    2251    1
  2249    2252    1
  2249    2270    1
  2249    2272    1
  2249    2276    1
  2250    2255    1
  2250    2263    1
  2250    2269    1
  2250    2271    1
  2250    2276    1
  2251    2253    1
  2251    2254    1
  2251    2268    1
  2251    2270    1
  2251    2273    1
  2251    2274    1
  2251    2275    1
  2252    2256    1
  2252    2262    1
  2252    2264    1
  2252    2271    1
  2252    2273    1
  2252    2274    1
  2252    2275    1
  2253    2255    1
  2253    2263    1
  2253    2269    1
  2253    2270    1
  2253    2272    1
  2254    2257    1
  2254    2261    1
  2254    2265    1
  2254    2266    1
  2254    2267    1
  2254    2269    1
  2254    2270    1
  2254    2272    1
  2254    6509    1
  2255    2258    1
  2255    2259    1
  2255    2260    1
  2255    2262    1
  2255    2264    1
  2255    2271    1
  2255    2272    1
  2255    6507    1
  2256    2263    1
  2256    2269    1
  2256    2270    1
  2256    6505    1
  2256    6508    1
  2256    6509    1
  2257    2262    1
  2257    2268    1
  2257    6507    1
  2258    2261    1
  2259    2261    1
  2260    2261    1
  2261    2264    1
  2261    2268    1
  2261    6503    1
  2261    6506    1
  2261    6510    1
  2261    6511    1
  2261    6513    1
  2262    2265    1
  2262    2266    1
  2262    2267    1
  2262    6501    1
  2262    6505    1
  2262    6508    1
  2262    6512    1
  2262    6513    1
  2263    2268    1
  2263    6507    1
  2263    6510    1
  2263    6511    1
  2264    6509    1
  2268    2273    1
  2268    2274    1
  2269    2271    1
  2269    2272    1
  2270    2275    1
  2271    2273    1
  2271    2274    1
  2272    2275    1
  2278    2284    1
  2278    2285    1
  2278    2286    1
  2278    2288    1
  2278    2308    1
  2278    2310    1
  2278    2312    1
  2279    2283    1
  2279    2287    1
  2279    2311    1
  2280    2283    1
  2280    2287    1
  2280    2311    1
  2281    2283    1
  2281    2287    1
  2281    2311    1
  2282    2289    1
  2282    2307    1
  2282    2309    1
  2282    2313    1
  2282    2314    1
  2282    2345    1
  2283    2288    1
  2283    2308    1
  2283    2310    1
  2283    2312    1
  2284    2287    1
  2284    2311    1
  2285    2287    1
  2285    2311    1
  2286    2287    1
  2286    2311    1
  2287    2290    1
  2287    2291    1
  2287    2294    1
  2287    2312    1
  2287    2345    1
  2288    2292    1
  2288    2307    1
  2288    2309    1
  2288    2312    1
  2288    2344    1
  2288    2346    1
  2289    2293    1
  2289    2294    1
  2289    2302    1
  2289    2308    1
  2289    2311    1
  2289    2345    1
  2290    2292    1
  2290    2307    1
  2290    2310    1
  2291    2295    1
  2291    2296    1
  2291    2300    1
  2291    2303    1
  2291    2304    1
  2291    2309    1
  2291    2310    1
  2292    2297    1
  2292    2298    1
  2292    2301    1
  2292    2305    1
  2292    2306    1
  2292    2308    1
  2292    6609    1
  2293    2295    1
  2293    2296    1
  2293    2300    1
  2293    2303    1
  2293    2304    1
  2293    2307    1
  2294    2299    1
  2294    2300    1
  2294    2303    1
  2294    2305    1
  2294    2306    1
  2294    2309    1
  2294    6608    1
  2295    2297    1
  2295    2298    1
  2295    2302    1
  2295    2304    1
  2295    2308    1
  2296    2301    1
  2296    2303    1
  2296    2308    1
  2296    6603    1
  2296    6609    1
  2297    2299    1
  2297    2300    1
  2297    2302    1
  2297    2305    1
  2297    2306    1
  2297    2307    1
  2297    6608    1
  2298    2303    1
  2298    2305    1
  2298    2306    1
  2298    2307    1
  2298    6602    1
  2298    6604    1
  2298    6610    1
  2299    2301    1
  2299    2302    1
  2299    2304    1
  2299    6603    1
  2299    6609    1
  2300    2305    1
  2300    2306    1
  2300    6601    1
  2300    6603    1
  2300    6611    1
  2301    2303    1
  2301    2304    1
  2301    6608    1
  2301    6610    1
  2302    2307    1
  2302    6608    1
  2302    6610    1
  2303    2305    1
  2303    2306    1
  2303    6609    1
  2304    2307    1
  2304    6608    1
  2304    6609    1
  2308    2310    1
  2308    2311    1
  2310    2313    1
  2310    2314    1
  2310    2317    1
  2311    2315    1
  2311    2344    1
  2311    2346    1
  2312    2316    1
  2312    2317    1
  2312    2339    1
  2312    2345    1
  2313    2315    1
  2313    2344    1
  2314    2318    1
  2314    2319    1
  2314    2337    1
  2314    2340    1
  2314    2341    1
  2314    2346    1
  2315    2320    1
  2315    2321    1
  2315    2324    1
  2315    2338    1
  2315    2342    1
  2315    2343    1
  2315    2345    1
  2316    2318    1
  2316    2319    1
  2316    2337    1
  2316    2340    1
  2316    2341    1
  2316    2344    1
  2317    2322    1
  2317    2323    1
  2317    2337    1
  2317    2340    1
  2317    2342    1
  2317    2343    1
  2317    2346    1
  2318    2320    1
  2318    2321    1
  2318    2339    1
  2318    2341    1
  2318    2345    1
  2319    2324    1
  2319    2332    1
  2319    2338    1
  2319    2340    1
  2319    2345    1
  2320    2322    1
  2320    2323    1
  2320    2337    1
  2320    2339    1
  2320    2342    1
  2320    2343    1
  2320    2344    1
  2321    2325    1
  2321    2331    1
  2321    2333    1
  2321    2340    1
  2321    2342    1
  2321    2343    1
  2321    2344    1
  2322    2324    1
  2322    2332    1
  2322    2338    1
  2322    2339    1
  2322    2341    1
  2323    2326    1
  2323    2330    1
  2323    2334    1
  2323    2335    1
  2323    2336    1
  2323    2338    1
  2323    2339    1
  2323    2341    1
  2323    3266    1
  2324    2327    1
  2324    2328    1
  2324    2329    1
  2324    2331    1
  2324    2333    1
  2324    2340    1
  2324    2341    1
  2324    3264    1
  2325    2332    1
  2325    2338    1
  2325    2339    1
  2325    3262    1
  2325    3265    1
  2325    3266    1
  2326    2331    1
  2326    2337    1
  2326    3264    1
  2327    2330    1
  2328    2330    1
  2329    2330    1
  2330    2333    1
  2330    2337    1
  2330    3260    1
  2330    3263    1
  2330    3267    1
  2330    3268    1
  2330    3270    1
  2331    2334    1
  2331    2335    1
  2331    2336    1
  2331    3258    1
  2331    3262    1
  2331    3265    1
  2331    3269    1
  2331    3270    1
  2332    2337    1
  2332    3264    1
  2332    3267    1
  2332    3268    1
  2333    3266    1
  2337    2342    1
  2337    2343    1
  2338    2340    1
  2338    2341    1
  2339    2344    1
  2340    2342    1
  2340    2343    1
  2341    2344    1
  2347    2353    1
  2347    2354    1
  2347    2355    1
  2347    2357    1
  2347    2377    1
  2347    2379    1
  2347    2381    1
  2348    2352    1
  2348    2356    1
  2348    2380    1
  2349    2352    1
  2349    2356    1
  2349    2380    1
  2350    2352    1
  2350    2356    1
  2350    2380    1
  2351    2358    1
  2351    2376    1
  2351    2378    1
  2351    2382    1
  2351    2383    1
  2351    2414    1
  2352    2357    1
  2352    2377    1
  2352    2379    1
  2352    2381    1
  2353    2356    1
  2353    2380    1
  2354    2356    1
  2354    2380    1
  2355    2356    1
  2355    2380    1
  2356    2359    1
  2356    2360    1
  2356    2363    1
  2356    2381    1
  2356    2414    1
  2357    2361    1
  2357    2376    1
  2357    2378    1
  2357    2381    1
  2357    2413    1
  2357    2415    1
  2358    2362    1
  2358    2363    1
  2358    2371    1
  2358    2377    1
  2358    2380    1
  2358    2414    1
  2359    2361    1
  2359    2376    1
  2359    2379    1
  2360    2364    1
  2360    2365    1
  2360    2369    1
  2360    2372    1
  2360    2373    1
  2360    2378    1
  2360    2379    1
  2361    2366    1
  2361    2367    1
  2361    2370    1
  2361    2374    1
  2361    2375    1
  2361    2377    1
  2362    2364    1
  2362    2365    1
  2362    2369    1
  2362    2372    1
  2362    2373    1
  2362    2376    1
  2363    2368    1
  2363    2369    1
  2363    2372    1
  2363    2374    1
  2363    2375    1
  2363    2378    1
  2364    2366    1
  2364    2367    1
  2364    2371    1
  2364    2373    1
  2364    2377    1
  2365    2370    1
  2365    2372    1
  2365    2377    1
  2366    2368    1
  2366    2369    1
  2366    2371    1
  2366    2374    1
  2366    2375    1
  2366    2376    1
  2367    2372    1
  2367    2374    1
  2367    2375    1
  2367    2376    1
  2368    2370    1
  2368    2371    1
  2368    2373    1
  2369    2374    1
  2369    2375    1
  2370    2372    1
  2370    2373    1
  2371    2376    1
  2372    2374    1
  2372    2375    1
  2373    2376    1
  2377    2379    1
  2377    2380    1
  2379    2382    1
  2379    2383    1
  2379    2386    1
  2380    2384    1
  2380    2413    1
  2380    2415    1
  2381    2385    1
  2381    2386    1
  2381    2408    1
  2381    2414    1
  2382    2384    1
  2382    2413    1
  2383    2387    1
  2383    2388    1
  2383    2406    1
  2383    2409    1
  2383    2410    1
  2383    2415    1
  2384    2389    1
  2384    2390    1
  2384    2393    1
  2384    2407    1
  2384    2411    1
  2384    2412    1
  2384    2414    1
  2385    2387    1
  2385    2388    1
  2385    2406    1
  2385    2409    1
  2385    2410    1
  2385    2413    1
  2386    2391    1
  2386    2392    1
  2386    2406    1
  2386    2409    1
  2386    2411    1
  2386    2412    1
  2386    2415    1
  2387    2389    1
  2387    2390    1
  2387    2408    1
  2387    2410    1
  2387    2414    1
  2388    2393    1
  2388    2401    1
  2388    2407    1
  2388    2409    1
  2388    2414    1
  2389    2391    1
  2389    2392    1
  2389    2406    1
  2389    2408    1
  2389    2411    1
  2389    2412    1
  2389    2413    1
  2390    2394    1
  2390    2400    1
  2390    2402    1
  2390    2409    1
  2390    2411    1
  2390    2412    1
  2390    2413    1
  2391    2393    1
  2391    2401    1
  2391    2407    1
  2391    2408    1
  2391    2410    1
  2392    2395    1
  2392    2399    1
  2392    2403    1
  2392    2404    1
  2392    2405    1
  2392    2407    1
  2392    2408    1
  2392    2410    1
  2393    2396    1
  2393    2397    1
  2393    2398    1
  2393    2400    1
  2393    2402    1
  2393    2409    1
  2393    2410    1
  2394    2401    1
  2394    2407    1
  2394    2408    1
  2395    2400    1
  2395    2406    1
  2396    2399    1
  2397    2399    1
  2398    2399    1
  2399    2402    1
  2399    2406    1
  2400    2403    1
  2400    2404    1
  2400    2405    1
  2401    2406    1
  2406    2411    1
  2406    2412    1
  2407    2409    1
  2407    2410    1
  2408    2413    1
  2409    2411    1
  2409    2412    1
  2410    2413    1
  2416    2422    1
  2416    2423    1
  2416    2424    1
  2416    2426    1
  2416    2446    1
  2416    2448    1
  2416    2450    1
  2417    2421    1
  2417    2425    1
  2417    2449    1
  2418    2421    1
  2418    2425    1
  2418    2449    1
  2419    2421    1
  2419    2425    1
  2419    2449    1
  2420    2427    1
  2420    2445    1
  2420    2447    1
  2420    2451    1
  2420    2452    1
  2420    2483    1
  2421    2426    1
  2421    2446    1
  2421    2448    1
  2421    2450    1
  2422    2425    1
  2422    2449    1
  2423    2425    1
  2423    2449    1
  2424    2425    1
  2424    2449    1
  2425    2428    1
  2425    2429    1
  2425    2432    1
  2425    2450    1
  2425    2483    1
  2426    2430    1
  2426    2445    1
  2426    2447    1
  2426    2450    1
  2426    2482    1
  2426    2484    1
  2427    2431    1
  2427    2432    1
  2427    2440    1
  2427    2446    1
  2427    2449    1
  2427    2483    1
  2428    2430    1
  2428    2445    1
  2428    2448    1
  2429    2433    1
  2429    2434    1
  2429    2438    1
  2429    2441    1
  2429    2442    1
  2429    2447    1
  2429    2448    1
  2430    2435    1
  2430    2436    1
  2430    2439    1
  2430    2443    1
  2430    2444    1
  2430    2446    1
  2430    4124    1
  2431    2433    1
  2431    2434    1
  2431    2438    1
  2431    2441    1
  2431    2442    1
  2431    2445    1
  2432    2437    1
  2432    2438    1
  2432    2441    1
  2432    2443    1
  2432    2444    1
  2432    2447    1
  2432    4125    1
  2433    2435    1
  2433    2436    1
  2433    2440    1
  2433    2442    1
  2433    2446    1
  2434    2439    1
  2434    2441    1
  2434    2446    1
  2434    4124    1
  2434    4126    1
  2435    2437    1
  2435    2438    1
  2435    2440    1
  2435    2443    1
  2435    2444    1
  2435    2445    1
  2435    4125    1
  2436    2441    1
  2436    2443    1
  2436    2444    1
  2436    2445    1
  2436    4117    1
  2436    4119    1
  2436    4127    1
  2437    2439    1
  2437    2440    1
  2437    2442    1
  2437    4124    1
  2437    4126    1
  2438    2443    1
  2438    2444    1
  2438    4118    1
  2438    4120    1
  2438    4126    1
  2439    2441    1
  2439    2442    1
  2439    4119    1
  2439    4125    1
  2440    2445    1
  2440    4119    1
  2440    4125    1
  2441    2443    1
  2441    2444    1
  2441    4124    1
  2442    2445    1
  2442    4124    1
  2442    4125    1
  2446    2448    1
  2446    2449    1
  2448    2451    1
  2448    2452    1
  2448    2455    1
  2449    2453    1
  2449    2482    1
  2449    2484    1
  2450    2454    1
  2450    2455    1
  2450    2477    1
  2450    2483    1
  2451    2453    1
  2451    2482    1
  2452    2456    1
  2452    2457    1
  2452    2475    1
  2452    2478    1
  2452    2479    1
  2452    2484    1
  2453    2458    1
  2453    2459    1
  2453    2462    1
  2453    2476    1
  2453    2480    1
  2453    2481    1
  2453    2483    1
  2454    2456    1
  2454    2457    1
  2454    2475    1
  2454    2478    1
  2454    2479    1
  2454    2482    1
  2455    2460    1
  2455    2461    1
  2455    2475    1
  2455    2478    1
  2455    2480    1
  2455    2481    1
  2455    2484    1
  2456    2458    1
  2456    2459    1
  2456    2477    1
  2456    2479    1
  2456    2483    1
  2457    2462    1
  2457    2470    1
  2457    2476    1
  2457    2478    1
  2457    2483    1
  2458    2460    1
  2458    2461    1
  2458    2475    1
  2458    2477    1
  2458    2480    1
  2458    2481    1
  2458    2482    1
  2459    2463    1
  2459    2469    1
  2459    2471    1
  2459    2478    1
  2459    2480    1
  2459    2481    1
  2459    2482    1
  2460    2462    1
  2460    2470    1
  2460    2476    1
  2460    2477    1
  2460    2479    1
  2461    2464    1
  2461    2468    1
  2461    2472    1
  2461    2473    1
  2461    2474    1
  2461    2476    1
  2461    2477    1
  2461    2479    1
  2462    2465    1
  2462    2466    1
  2462    2467    1
  2462    2469    1
  2462    2471    1
  2462    2478    1
  2462    2479    1
  2463    2470    1
  2463    2476    1
  2463    2477    1
  2464    2469    1
  2464    2475    1
  2465    2468    1
  2466    2468    1
  2467    2468    1
  2468    2471    1
  2468    2475    1
  2469    2472    1
  2469    2473    1
  2469    2474    1
  2470    2475    1
  2475    2480    1
  2475    2481    1
  2476    2478    1
  2476    2479    1
  2477    2482    1
  2478    2480    1
  2478    2481    1
  2479    2482    1
  2485    2491    1
  2485    2492    1
  2485    2493    1
  2485    2495    1
  2485    2515    1
  2485    2517    1
  2485    2519    1
  2486    2490    1
  2486    2494    1
  2486    2518    1
  2487    2490    1
  2487    2494    1
  2487    2518    1
  2488    2490    1
  2488    2494    1
  2488    2518    1
  2489    2496    1
  2489    2514    1
  2489    2516    1
  2489    2520    1
  2489    2521    1
  2489    2552    1
  2490    2495    1
  2490    2515    1
  2490    2517    1
  2490    2519    1
  2491    2494    1
  2491    2518    1
  2492    2494    1
  2492    2518    1
  2493    2494    1
  2493    2518    1
  2494    2497    1
  2494    2498    1
  2494    2501    1
  2494    2519    1
  2494    2552    1
  2495    2499    1
  2495    2514    1
  2495    2516    1
  2495    2519    1
  2495    2551    1
  2495    2553    1
  2496    2500    1
  2496    2501    1
  2496    2509    1
  2496    2515    1
  2496    2518    1
  2496    2552    1
  2497    2499    1
  2497    2514    1
  2497    2517    1
  2498    2502    1
  2498    2503    1
  2498    2507    1
  2498    2510    1
  2498    2511    1
  2498    2516    1
  2498    2517    1
  2499    2504    1
  2499    2505    1
  2499    2508    1
  2499    2512    1
  2499    2513    1
  2499    2515    1
  2500    2502    1
  2500    2503    1
  2500    2507    1
  2500    2510    1
  2500    2511    1
  2500    2514    1
  2501    2506    1
  2501    2507    1
  2501    2510    1
  2501    2512    1
  2501    2513    1
  2501    2516    1
  2502    2504    1
  2502    2505    1
  2502    2509    1
  2502    2511    1
  2502    2515    1
  2503    2508    1
  2503    2510    1
  2503    2515    1
  2504    2506    1
  2504    2507    1
  2504    2509    1
  2504    2512    1
  2504    2513    1
  2504    2514    1
  2505    2510    1
  2505    2512    1
  2505    2513    1
  2505    2514    1
  2506    2508    1
  2506    2509    1
  2506    2511    1
  2507    2512    1
  2507    2513    1
  2508    2510    1
  2508    2511    1
  2509    2514    1
  2510    2512    1
  2510    2513    1
  2511    2514    1
  2515    2517    1
  2515    2518    1
  2517    2520    1
  2517    2521    1
  2517    2524    1
  2518    2522    1
  2518    2551    1
  2518    2553    1
  2519    2523    1
  2519    2524    1
  2519    2546    1
  2519    2552    1
  2520    2522    1
  2520    2551    1
  2521    2525    1
  2521    2526    1
  2521    2544    1
  2521    2547    1
  2521    2548    1
  2521    2553    1
  2522    2527    1
  2522    2528    1
  2522    2531    1
  2522    2545    1
  2522    2549    1
  2522    2550    1
  2522    2552    1
  2523    2525    1
  2523    2526    1
  2523    2544    1
  2523    2547    1
  2523    2548    1
  2523    2551    1
  2524    2529    1
  2524    2530    1
  2524    2544    1
  2524    2547    1
  2524    2549    1
  2524    2550    1
  2524    2553    1
  2525    2527    1
  2525    2528    1
  2525    2546    1
  2525    2548    1
  2525    2552    1
  2526    2531    1
  2526    2539    1
  2526    2545    1
  2526    2547    1
  2526    2552    1
  2527    2529    1
  2527    2530    1
  2527    2544    1
  2527    2546    1
  2527    2549    1
  2527    2550    1
  2527    2551    1
  2528    2532    1
  2528    2538    1
  2528    2540    1
  2528    2547    1
  2528    2549    1
  2528    2550    1
  2528    2551    1
  2529    2531    1
  2529    2539    1
  2529    2545    1
  2529    2546    1
  2529    2548    1
  2530    2533    1
  2530    2537    1
  2530    2541    1
  2530    2542    1
  2530    2543    1
  2530    2545    1
  2530    2546    1
  2530    2548    1
  2531    2534    1
  2531    2535    1
  2531    2536    1
  2531    2538    1
  2531    2540    1
  2531    2547    1
  2531    2548    1
  2532    2539    1
  2532    2545    1
  2532    2546    1
  2533    2538    1
  2533    2544    1
  2534    2537    1
  2535    2537    1
  2536    2537    1
  2537    2540    1
  2537    2544    1
  2538    2541    1
  2538    2542    1
  2538    2543    1
  2539    2544    1
  2544    2549    1
  2544    2550    1
  2545    2547    1
  2545    2548    1
  2546    2551    1
  2547    2549    1
  2547    2550    1
  2548    2551    1
  2554    2560    1
  2554    2561    1
  2554    2562    1
  2554    2564    1
  2554    2584    1
  2554    2586    1
  2554    2588    1
  2555    2559    1
  2555    2563    1
  2555    2587    1
  2556    2559    1
  2556    2563    1
  2556    2587    1
  2557    2559    1
  2557    2563    1
  2557    2587    1
  2558    2565    1
  2558    2583    1
  2558    2585    1
  2558    2589    1
  2558    2590    1
  2558    2621    1
  2559    2564    1
  2559    2584    1
  2559    2586    1
  2559    2588    1
  2560    2563    1
  2560    2587    1
  2561    2563    1
  2561    2587    1
  2562    2563    1
  2562    2587    1
  2563    2566    1
  2563    2567    1
  2563    2570    1
  2563    2588    1
  2563    2621    1
  2564    2568    1
  2564    2583    1
  2564    2585    1
  2564    2588    1
  2564    2620    1
  2564    2622    1
  2565    2569    1
  2565    2570    1
  2565    2578    1
  2565    2584    1
  2565    2587    1
  2565    2621    1
  2566    2568    1
  2566    2583    1
  2566    2586    1
  2567    2571    1
  2567    2572    1
  2567    2576    1
  2567    2579    1
  2567    2580    1
  2567    2585    1
  2567    2586    1
  2568    2573    1
  2568    2574    1
  2568    2577    1
  2568    2581    1
  2568    2582    1
  2568    2584    1
  2569    2571    1
  2569    2572    1
  2569    2576    1
  2569    2579    1
  2569    2580    1
  2569    2583    1
  2570    2575    1
  2570    2576    1
  2570    2579    1
  2570    2581    1
  2570    2582    1
  2570    2585    1
  2571    2573    1
  2571    2574    1
  2571    2578    1
  2571    2580    1
  2571    2584    1
  2572    2577    1
  2572    2579    1
  2572    2584    1
  2573    2575    1
  2573    2576    1
  2573    2578    1
  2573    2581    1
  2573    2582    1
  2573    2583    1
  2574    2579    1
  2574    2581    1
  2574    2582    1
  2574    2583    1
  2575    2577    1
  2575    2578    1
  2575    2580    1
  2576    2581    1
  2576    2582    1
  2577    2579    1
  2577    2580    1
  2578    2583    1
  2579    2581    1
  2579    2582    1
  2580    2583    1
  2584    2586    1
  2584    2587    1
  2586    2589    1
  2586    2590    1
  2586    2593    1
  2587    2591    1
  2587    2620    1
  2587    2622    1
  2588    2592    1
  2588    2593    1
  2588    2615    1
  2588    2621    1
  2589    2591    1
  2589    2620    1
  2590    2594    1
  2590    2595    1
  2590    2613    1
  2590    2616    1
  2590    2617    1
  2590    2622    1
  2591    2596    1
  2591    2597    1
  2591    2600    1
  2591    2614    1
  2591    2618    1
  2591    2619    1
  2591    2621    1
  2592    2594    1
  2592    2595    1
  2592    2613    1
  2592    2616    1
  2592    2617    1
  2592    2620    1
  2593    2598    1
  2593    2599    1
  2593    2613    1
  2593    2616    1
  2593    2618    1
  2593    2619    1
  2593    2622    1
  2594    2596    1
  2594    2597    1
  2594    2615    1
  2594    2617    1
  2594    2621    1
  2595    2600    1
  2595    2608    1
  2595    2614    1
  2595    2616    1
  2595    2621    1
  2596    2598    1
  2596    2599    1
  2596    2613    1
  2596    2615    1
  2596    2618    1
  2596    2619    1
  2596    2620    1
  2597    2601    1
  2597    2607    1
  2597    2609    1
  2597    2616    1
  2597    2618    1
  2597    2619    1
  2597    2620    1
  2598    2600    1
  2598    2608    1
  2598    2614    1
  2598    2615    1
  2598    2617    1
  2599    2602    1
  2599    2606    1
  2599    2610    1
  2599    2611    1
  2599    2612    1
  2599    2614    1
  2599    2615    1
  2599    2617    1
  2600    2603    1
  2600    2604    1
  2600    2605    1
  2600    2607    1
  2600    2609    1
  2600    2616    1
  2600    2617    1
  2601    2608    1
  2601    2614    1
  2601    2615    1
  2602    2607    1
  2602    2613    1
  2603    2606    1
  2604    2606    1
  2605    2606    1
  2606    2609    1
  2606    2613    1
  2607    2610    1
  2607    2611    1
  2607    2612    1
  2608    2613    1
  2613    2618    1
  2613    2619    1
  2614    2616    1
  2614    2617    1
  2615    2620    1
  2616    2618    1
  2616    2619    1
  2617    2620    1
  2623    2629    1
  2623    2630    1
  2623    2631    1
  2623    2633    1
  2623    2653    1
  2623    2655    1
  2623    2657    1
  2624    2628    1
  2624    2632    1
  2624    2656    1
  2625    2628    1
  2625    2632    1
  2625    2656    1
  2626    2628    1
  2626    2632    1
  2626    2656    1
  2627    2634    1
  2627    2652    1
  2627    2654    1
  2627    2658    1
  2627    2659    1
  2627    2690    1
  2628    2633    1
  2628    2653    1
  2628    2655    1
  2628    2657    1
  2629    2632    1
  2629    2656    1
  2630    2632    1
  2630    2656    1
  2631    2632    1
  2631    2656    1
  2632    2635    1
  2632    2636    1
  2632    2639    1
  2632    2657    1
  2632    2690    1
  2633    2637    1
  2633    2652    1
  2633    2654    1
  2633    2657    1
  2633    2689    1
  2633    2691    1
  2634    2638    1
  2634    2639    1
  2634    2647    1
  2634    2653    1
  2634    2656    1
  2634    2690    1
  2635    2637    1
  2635    2652    1
  2635    2655    1
  2636    2640    1
  2636    2641    1
  2636    2645    1
  2636    2648    1
  2636    2649    1
  2636    2654    1
  2636    2655    1
  2637    2642    1
  2637    2643    1
  2637    2646    1
  2637    2650    1
  2637    2651    1
  2637    2653    1
  2638    2640    1
  2638    2641    1
  2638    2645    1
  2638    2648    1
  2638    2649    1
  2638    2652    1
  2639    2644    1
  2639    2645    1
  2639    2648    1
  2639    2650    1
  2639    2651    1
  2639    2654    1
  2640    2642    1
  2640    2643    1
  2640    2647    1
  2640    2649    1
  2640    2653    1
  2641    2646    1
  2641    2648    1
  2641    2653    1
  2642    2644    1
  2642    2645    1
  2642    2647    1
  2642    2650    1
  2642    2651    1
  2642    2652    1
  2643    2648    1
  2643    2650    1
  2643    2651    1
  2643    2652    1
  2644    2646    1
  2644    2647    1
  2644    2649    1
  2645    2650    1
  2645    2651    1
  2646    2648    1
  2646    2649    1
  2647    2652    1
  2648    2650    1
  2648    2651    1
  2649    2652    1
  2653    2655    1
  2653    2656    1
  2655    2658    1
  2655    2659    1
  2655    2662    1
  2656    2660    1
  2656    2689    1
  2656    2691    1
  2657    2661    1
  2657    2662    1
  2657    2684    1
  2657    2690    1
  2658    2660    1
  2658    2689    1
  2659    2663    1
  2659    2664    1
  2659    2682    1
  2659    2685    1
  2659    2686    1
  2659    2691    1
  2660    2665    1
  2660    2666    1
  2660    2669    1
  2660    2683    1
  2660    2687    1
  2660    2688    1
  2660    2690    1
  2661    2663    1
  2661    2664    1
  2661    2682    1
  2661    2685    1
  2661    2686    1
  2661    2689    1
  2662    2667    1
  2662    2668    1
  2662    2682    1
  2662    2685    1
  2662    2687    1
  2662    2688    1
  2662    2691    1
  2663    2665    1
  2663    2666    1
  2663    2684    1
  2663    2686    1
  2663    2690    1
  2664    2669    1
  2664    2677    1
  2664    2683    1
  2664    2685    1
  2664    2690    1
  2665    2667    1
  2665    2668    1
  2665    2682    1
  2665    2684    1
  2665    2687    1
  2665    2688    1
  2665    2689    1
  2666    2670    1
  2666    2676    1
  2666    2678    1
  2666    2685    1
  2666    2687    1
  2666    2688    1
  2666    2689    1
  2667    2669    1
  2667    2677    1
  2667    2683    1
  2667    2684    1
  2667    2686    1
  2668    2671    1
  2668    2675    1
  2668    2679    1
  2668    2680    1
  2668    2681    1
  2668    2683    1
  2668    2684    1
  2668    2686    1
  2669    2672    1
  2669    2673    1
  2669    2674    1
  2669    2676    1
  2669    2678    1
  2669    2685    1
  2669    2686    1
  2670    2677    1
  2670    2683    1
  2670    2684    1
  2671    2676    1
  2671    2682    1
  2672    2675    1
  2673    2675    1
  2674    2675    1
  2675    2678    1
  2675    2682    1
  2676    2679    1
  2676    2680    1
  2676    2681    1
  2677    2682    1
  2682    2687    1
  2682    2688    1
  2683    2685    1
  2683    2686    1
  2684    2689    1
  2685    2687    1
  2685    2688    1
  2686    2689    1
  2692    2698    1
  2692    2699    1
  2692    2700    1
  2692    2702    1
  2692    2722    1
  2692    2724    1
  2692    2726    1
  2693    2697    1
  2693    2701    1
  2693    2725    1
  2694    2697    1
  2694    2701    1
  2694    2725    1
  2695    2697    1
  2695    2701    1
  2695    2725    1
  2696    2703    1
  2696    2721    1
  2696    2723    1
  2696    2727    1
  2696    2728    1
  2696    2759    1
  2697    2702    1
  2697    2722    1
  2697    2724    1
  2697    2726    1
  2698    2701    1
  2698    2725    1
  2699    2701    1
  2699    2725    1
  2700    2701    1
  2700    2725    1
  2701    2704    1
  2701    2705    1
  2701    2708    1
  2701    2726    1
  2701    2759    1
  2702    2706    1
  2702    2721    1
  2702    2723    1
  2702    2726    1
  2702    2758    1
  2702    2760    1
  2703    2707    1
  2703    2708    1
  2703    2716    1
  2703    2722    1
  2703    2725    1
  2703    2759    1
  2704    2706    1
  2704    2721    1
  2704    2724    1
  2705    2709    1
  2705    2710    1
  2705    2714    1
  2705    2717    1
  2705    2718    1
  2705    2723    1
  2705    2724    1
  2706    2711    1
  2706    2712    1
  2706    2715    1
  2706    2719    1
  2706    2720    1
  2706    2722    1
  2707    2709    1
  2707    2710    1
  2707    2714    1
  2707    2717    1
  2707    2718    1
  2707    2721    1
  2708    2713    1
  2708    2714    1
  2708    2717    1
  2708    2719    1
  2708    2720    1
  2708    2723    1
  2709    2711    1
  2709    2712    1
  2709    2716    1
  2709    2718    1
  2709    2722    1
  2710    2715    1
  2710    2717    1
  2710    2722    1
  2711    2713    1
  2711    2714    1
  2711    2716    1
  2711    2719    1
  2711    2720    1
  2711    2721    1
  2712    2717    1
  2712    2719    1
  2712    2720    1
  2712    2721    1
  2713    2715    1
  2713    2716    1
  2713    2718    1
  2714    2719    1
  2714    2720    1
  2715    2717    1
  2715    2718    1
  2716    2721    1
  2717    2719    1
  2717    2720    1
  2718    2721    1
  2722    2724    1
  2722    2725    1
  2724    2727    1
  2724    2728    1
  2724    2731    1
  2725    2729    1
  2725    2758    1
  2725    2760    1
  2726    2730    1
  2726    2731    1
  2726    2753    1
  2726    2759    1
  2727    2729    1
  2727    2758    1
  2728    2732    1
  2728    2733    1
  2728    2751    1
  2728    2754    1
  2728    2755    1
  2728    2760    1
  2729    2734    1
  2729    2735    1
  2729    2738    1
  2729    2752    1
  2729    2756    1
  2729    2757    1
  2729    2759    1
  2730    2732    1
  2730    2733    1
  2730    2751    1
  2730    2754    1
  2730    2755    1
  2730    2758    1
  2731    2736    1
  2731    2737    1
  2731    2751    1
  2731    2754    1
  2731    2756    1
  2731    2757    1
  2731    2760    1
  2732    2734    1
  2732    2735    1
  2732    2753    1
  2732    2755    1
  2732    2759    1
  2733    2738    1
  2733    2746    1
  2733    2752    1
  2733    2754    1
  2733    2759    1
  2734    2736    1
  2734    2737    1
  2734    2751    1
  2734    2753    1
  2734    2756    1
  2734    2757    1
  2734    2758    1
  2735    2739    1
  2735    2745    1
  2735    2747    1
  2735    2754    1
  2735    2756    1
  2735    2757    1
  2735    2758    1
  2736    2738    1
  2736    2746    1
  2736    2752    1
  2736    2753    1
  2736    2755    1
  2737    2740    1
  2737    2744    1
  2737    2748    1
  2737    2749    1
  2737    2750    1
  2737    2752    1
  2737    2753    1
  2737    2755    1
  2738    2741    1
  2738    2742    1
  2738    2743    1
  2738    2745    1
  2738    2747    1
  2738    2754    1
  2738    2755    1
  2739    2746    1
  2739    2752    1
  2739    2753    1
  2740    2745    1
  2740    2751    1
  2741    2744    1
  2742    2744    1
  2743    2744    1
  2744    2747    1
  2744    2751    1
  2745    2748    1
  2745    2749    1
  2745    2750    1
  2746    2751    1
  2751    2756    1
  2751    2757    1
  2752    2754    1
  2752    2755    1
  2753    2758    1
  2754    2756    1
  2754    2757    1
  2755    2758    1
  2761    2767    1
  2761    2768    1
  2761    2769    1
  2761    2771    1
  2761    2791    1
  2761    2793    1
  2761    2795    1
  2762    2766    1
  2762    2770    1
  2762    2794    1
  2763    2766    1
  2763    2770    1
  2763    2794    1
  2764    2766    1
  2764    2770    1
  2764    2794    1
  2765    2772    1
  2765    2790    1
  2765    2792    1
  2765    2796    1
  2765    2797    1
  2765    2828    1
  2766    2771    1
  2766    2791    1
  2766    2793    1
  2766    2795    1
  2767    2770    1
  2767    2794    1
  2768    2770    1
  2768    2794    1
  2769    2770    1
  2769    2794    1
  2770    2773    1
  2770    2774    1
  2770    2777    1
  2770    2795    1
  2770    2828    1
  2771    2775    1
  2771    2790    1
  2771    2792    1
  2771    2795    1
  2771    2827    1
  2771    2829    1
  2772    2776    1
  2772    2777    1
  2772    2785    1
  2772    2791    1
  2772    2794    1
  2772    2828    1
  2773    2775    1
  2773    2790    1
  2773    2793    1
  2774    2778    1
  2774    2779    1
  2774    2783    1
  2774    2786    1
  2774    2787    1
  2774    2792    1
  2774    2793    1
  2775    2780    1
  2775    2781    1
  2775    2784    1
  2775    2788    1
  2775    2789    1
  2775    2791    1
  2775    4194    1
  2776    2778    1
  2776    2779    1
  2776    2783    1
  2776    2786    1
  2776    2787    1
  2776    2790    1
  2777    2782    1
  2777    2783    1
  2777    2786    1
  2777    2788    1
  2777    2789    1
  2777    2792    1
  2777    4193    1
  2778    2780    1
  2778    2781    1
  2778    2785    1
  2778    2787    1
  2778    2791    1
  2779    2784    1
  2779    2786    1
  2779    2791    1
  2779    4188    1
  2779    4194    1
  2780    2782    1
  2780    2783    1
  2780    2785    1
  2780    2788    1
  2780    2789    1
  2780    2790    1
  2780    4193    1
  2781    2786    1
  2781    2788    1
  2781    2789    1
  2781    2790    1
  2781    4187    1
  2781    4189    1
  2781    4195    1
  2782    2784    1
  2782    2785    1
  2782    2787    1
  2782    4188    1
  2782    4194    1
  2783    2788    1
  2783    2789    1
  2783    4186    1
  2783    4188    1
  2783    4196    1
  2784    2786    1
  2784    2787    1
  2784    4193    1
  2784    4195    1
  2785    2790    1
  2785    4193    1
  2785    4195    1
  2786    2788    1
  2786    2789    1
  2786    4194    1
  2787    2790    1
  2787    4193    1
  2787    4194    1
  2791    2793    1
  2791    2794    1
  2793    2796    1
  2793    2797    1
  2793    2800    1
  2794    2798    1
  2794    2827    1
  2794    2829    1
  2795    2799    1
  2795    2800    1
  2795    2822    1
  2795    2828    1
  2796    2798    1
  2796    2827    1
  2797    2801    1
  2797    2802    1
  2797    2820    1
  2797    2823    1
  2797    2824    1
  2797    2829    1
  2798    2803    1
  2798    2804    1
  2798    2807    1
  2798    2821    1
  2798    2825    1
  2798    2826    1
  2798    2828    1
  2799    2801    1
  2799    2802    1
  2799    2820    1
  2799    2823    1
  2799    2824    1
  2799    2827    1
  2800    2805    1
  2800    2806    1
  2800    2820    1
  2800    2823    1
  2800    2825    1
  2800    2826    1
  2800    2829    1
  2801    2803    1
  2801    2804    1
  2801    2822    1
  2801    2824    1
  2801    2828    1
  2802    2807    1
  2802    2815    1
  2802    2821    1
  2802    2823    1
  2802    2828    1
  2803    2805    1
  2803    2806    1
  2803    2820    1
  2803    2822    1
  2803    2825    1
  2803    2826    1
  2803    2827    1
  2804    2808    1
  2804    2814    1
  2804    2816    1
  2804    2823    1
  2804    2825    1
  2804    2826    1
  2804    2827    1
  2805    2807    1
  2805    2815    1
  2805    2821    1
  2805    2822    1
  2805    2824    1
  2806    2809    1
  2806    2813    1
  2806    2817    1
  2806    2818    1
  2806    2819    1
  2806    2821    1
  2806    2822    1
  2806    2824    1
  2807    2810    1
  2807    2811    1
  2807    2812    1
  2807    2814    1
  2807    2816    1
  2807    2823    1
  2807    2824    1
  2808    2815    1
  2808    2821    1
  2808    2822    1
  2809    2814    1
  2809    2820    1
  2810    2813    1
  2811    2813    1
  2812    2813    1
  2813    2816    1
  2813    2820    1
  2814    2817    1
  2814    2818    1
  2814    2819    1
  2815    2820    1
  2820    2825    1
  2820    2826    1
  2821    2823    1
  2821    2824    1
  2822    2827    1
  2823    2825    1
  2823    2826    1
  2824    2827    1
  2830    2836    1
  2830    2837    1
  2830    2838    1
  2830    2840    1
  2830    2860    1
  2830    2862    1
  2830    2864    1
  2831    2835    1
  2831    2839    1
  2831    2863    1
  2832    2835    1
  2832    2839    1
  2832    2863    1
  2833    2835    1
  2833    2839    1
  2833    2863    1
  2834    2841    1
  2834    2859    1
  2834    2861    1
  2834    2865    1
  2834    2866    1
  2834    2897    1
  2835    2840    1
  2835    2860    1
  2835    2862    1
  2835    2864    1
  2836    2839    1
  2836    2863    1
  2837    2839    1
  2837    2863    1
  2838    2839    1
  2838    2863    1
  2839    2842    1
  2839    2843    1
  2839    2846    1
  2839    2864    1
  2839    2897    1
  2840    2844    1
  2840    2859    1
  2840    2861    1
  2840    2864    1
  2840    2896    1
  2840    2898    1
  2841    2845    1
  2841    2846    1
  2841    2854    1
  2841    2860    1
  2841    2863    1
  2841    2897    1
  2842    2844    1
  2842    2859    1
  2842    2862    1
  2843    2847    1
  2843    2848    1
  2843    2852    1
  2843    2855    1
  2843    2856    1
  2843    2861    1
  2843    2862    1
  2844    2849    1
  2844    2850    1
  2844    2853    1
  2844    2857    1
  2844    2858    1
  2844    2860    1
  2845    2847    1
  2845    2848    1
  2845    2852    1
  2845    2855    1
  2845    2856    1
  2845    2859    1
  2846    2851    1
  2846    2852    1
  2846    2855    1
  2846    2857    1
  2846    2858    1
  2846    2861    1
  2847    2849    1
  2847    2850    1
  2847    2854    1
  2847    2856    1
  2847    2860    1
  2848    2853    1
  2848    2855    1
  2848    2860    1
  2849    2851    1
  2849    2852    1
  2849    2854    1
  2849    2857    1
  2849    2858    1
  2849    2859    1
  2850    2855    1
  2850    2857    1
  2850    2858    1
  2850    2859    1
  2851    2853    1
  2851    2854    1
  2851    2856    1
  2852    2857    1
  2852    2858    1
  2853    2855    1
  2853    2856    1
  2854    2859    1
  2855    2857    1
  2855    2858    1
  2856    2859    1
  2860    2862    1
  2860    2863    1
  2862    2865    1
  2862    2866    1
  2862    2869    1
  2863    2867    1
  2863    2896    1
  2863    2898    1
  2864    2868    1
  2864    2869    1
  2864    2891    1
  2864    2897    1
  2865    2867    1
  2865    2896    1
  2866    2870    1
  2866    2871    1
  2866    2889    1
  2866    2892    1
  2866    2893    1
  2866    2898    1
  2867    2872    1
  2867    2873    1
  2867    2876    1
  2867    2890    1
  2867    2894    1
  2867    2895    1
  2867    2897    1
  2868    2870    1
  2868    2871    1
  2868    2889    1
  2868    2892    1
  2868    2893    1
  2868    2896    1
  2869    2874    1
  2869    2875    1
  2869    2889    1
  2869    2892    1
  2869    2894    1
  2869    2895    1
  2869    2898    1
  2870    2872    1
  2870    2873    1
  2870    2891    1
  2870    2893    1
  2870    2897    1
  2871    2876    1
  2871    2884    1
  2871    2890    1
  2871    2892    1
  2871    2897    1
  2872    2874    1
  2872    2875    1
  2872    2889    1
  2872    2891    1
  2872    2894    1
  2872    2895    1
  2872    2896    1
  2873    2877    1
  2873    2883    1
  2873    2885    1
  2873    2892    1
  2873    2894    1
  2873    2895    1
  2873    2896    1
  2874    2876    1
  2874    2884    1
  2874    2890    1
  2874    2891    1
  2874    2893    1
  2875    2878    1
  2875    2882    1
  2875    2886    1
  2875    2887    1
  2875    2888    1
  2875    2890    1
  2875    2891    1
  2875    2893    1
  2876    2879    1
  2876    2880    1
  2876    2881    1
  2876    2883    1
  2876    2885    1
  2876    2892    1
  2876    2893    1
  2877    2884    1
  2877    2890    1
  2877    2891    1
  2878    2883    1
  2878    2889    1
  2879    2882    1
  2880    2882    1
  2881    2882    1
  2882    2885    1
  2882    2889    1
  2883    2886    1
  2883    2887    1
  2883    2888    1
  2884    2889    1
  2889    2894    1
  2889    2895    1
  2890    2892    1
  2890    2893    1
  2891    2896    1
  2892    2894    1
  2892    2895    1
  2893    2896    1
  2899    2905    1
  2899    2906    1
  2899    2907    1
  2899    2909    1
  2899    2929    1
  2899    2931    1
  2899    2933    1
  2900    2904    1
  2900    2908    1
  2900    2932    1
  2901    2904    1
  2901    2908    1
  2901    2932    1
  2902    2904    1
  2902    2908    1
  2902    2932    1
  2903    2910    1
  2903    2928    1
  2903    2930    1
  2903    2934    1
  2903    2935    1
  2903    2966    1
  2904    2909    1
  2904    2929    1
  2904    2931    1
  2904    2933    1
  2905    2908    1
  2905    2932    1
  2906    2908    1
  2906    2932    1
  2907    2908    1
  2907    2932    1
  2908    2911    1
  2908    2912    1
  2908    2915    1
  2908    2933    1
  2908    2966    1
  2909    2913    1
  2909    2928    1
  2909    2930    1
  2909    2933    1
  2909    2965    1
  2909    2967    1
  2910    2914    1
  2910    2915    1
  2910    2923    1
  2910    2929    1
  2910    2932    1
  2910    2966    1
  2911    2913    1
  2911    2928    1
  2911    2931    1
  2912    2916    1
  2912    2917    1
  2912    2921    1
  2912    2924    1
  2912    2925    1
  2912    2930    1
  2912    2931    1
  2913    2918    1
  2913    2919    1
  2913    2922    1
  2913    2926    1
  2913    2927    1
  2913    2929    1
  2913    3227    1
  2914    2916    1
  2914    2917    1
  2914    2921    1
  2914    2924    1
  2914    2925    1
  2914    2928    1
  2915    2920    1
  2915    2921    1
  2915    2924    1
  2915    2926    1
  2915    2927    1
  2915    2930    1
  2915    3228    1
  2916    2918    1
  2916    2919    1
  2916    2923    1
  2916    2925    1
  2916    2929    1
  2917    2922    1
  2917    2924    1
  2917    2929    1
  2917    3227    1
  2917    3229    1
  2918    2920    1
  2918    2921    1
  2918    2923    1
  2918    2926    1
  2918    2927    1
  2918    2928    1
  2918    3228    1
  2919    2924    1
  2919    2926    1
  2919    2927    1
  2919    2928    1
  2919    3220    1
  2919    3222    1
  2919    3230    1
  2920    2922    1
  2920    2923    1
  2920    2925    1
  2920    3227    1
  2920    3229    1
  2921    2926    1
  2921    2927    1
  2921    3221    1
  2921    3223    1
  2921    3229    1
  2922    2924    1
  2922    2925    1
  2922    3222    1
  2922    3228    1
  2923    2928    1
  2923    3222    1
  2923    3228    1
  2924    2926    1
  2924    2927    1
  2924    3227    1
  2925    2928    1
  2925    3227    1
  2925    3228    1
  2929    2931    1
  2929    2932    1
  2931    2934    1
  2931    2935    1
  2931    2938    1
  2932    2936    1
  2932    2965    1
  2932    2967    1
  2933    2937    1
  2933    2938    1
  2933    2960    1
  2933    2966    1
  2934    2936    1
  2934    2965    1
  2935    2939    1
  2935    2940    1
  2935    2958    1
  2935    2961    1
  2935    2962    1
  2935    2967    1
  2936    2941    1
  2936    2942    1
  2936    2945    1
  2936    2959    1
  2936    2963    1
  2936    2964    1
  2936    2966    1
  2937    2939    1
  2937    2940    1
  2937    2958    1
  2937    2961    1
  2937    2962    1
  2937    2965    1
  2938    2943    1
  2938    2944    1
  2938    2958    1
  2938    2961    1
  2938    2963    1
  2938    2964    1
  2938    2967    1
  2939    2941    1
  2939    2942    1
  2939    2960    1
  2939    2962    1
  2939    2966    1
  2940    2945    1
  2940    2953    1
  2940    2959    1
  2940    2961    1
  2940    2966    1
  2941    2943    1
  2941    2944    1
  2941    2958    1
  2941    2960    1
  2941    2963    1
  2941    2964    1
  2941    2965    1
  2942    2946    1
  2942    2952    1
  2942    2954    1
  2942    2961    1
  2942    2963    1
  2942    2964    1
  2942    2965    1
  2943    2945    1
  2943    2953    1
  2943    2959    1
  2943    2960    1
  2943    2962    1
  2944    2947    1
  2944    2951    1
  2944    2955    1
  2944    2956    1
  2944    2957    1
  2944    2959    1
  2944    2960    1
  2944    2962    1
  2944    3540    1
  2945    2948    1
  2945    2949    1
  2945    2950    1
  2945    2952    1
  2945    2954    1
  2945    2961    1
  2945    2962    1
  2945    3542    1
  2946    2953    1
  2946    2959    1
  2946    2960    1
  2946    3540    1
  2946    3543    1
  2946    3544    1
  2947    2952    1
  2947    2958    1
  2947    3542    1
  2948    2951    1
  2949    2951    1
  2950    2951    1
  2951    2954    1
  2951    2958    1
  2951    3534    1
  2951    3538    1
  2951    3541    1
  2951    3545    1
  2951    3546    1
  2952    2955    1
  2952    2956    1
  2952    2957    1
  2952    3536    1
  2952    3539    1
  2952    3543    1
  2952    3544    1
  2952    3546    1
  2953    2958    1
  2953    3538    1
  2953    3541    1
  2953    3542    1
  2954    3540    1
  2958    2963    1
  2958    2964    1
  2959    2961    1
  2959    2962    1
  2960    2965    1
  2961    2963    1
  2961    2964    1
  2962    2965    1
  2968    2974    1
  2968    2975    1
  2968    2976    1
  2968    2978    1
  2968    2998    1
  2968    3000    1
  2968    3002    1
  2969    2973    1
  2969    2977    1
  2969    3001    1
  2970    2973    1
  2970    2977    1
  2970    3001    1
  2971    2973    1
  2971    2977    1
  2971    3001    1
  2972    2979    1
  2972    2997    1
  2972    2999    1
  2972    3003    1
  2972    3004    1
  2972    3035    1
  2973    2978    1
  2973    2998    1
  2973    3000    1
  2973    3002    1
  2974    2977    1
  2974    3001    1
  2975    2977    1
  2975    3001    1
  2976    2977    1
  2976    3001    1
  2977    2980    1
  2977    2981    1
  2977    2984    1
  2977    3002    1
  2977    3035    1
  2978    2982    1
  2978    2997    1
  2978    2999    1
  2978    3002    1
  2978    3034    1
  2978    3036    1
  2979    2983    1
  2979    2984    1
  2979    2992    1
  2979    2998    1
  2979    3001    1
  2979    3035    1
  2980    2982    1
  2980    2997    1
  2980    3000    1
  2981    2985    1
  2981    2986    1
  2981    2990    1
  2981    2993    1
  2981    2994    1
  2981    2999    1
  2981    3000    1
  2982    2987    1
  2982    2988    1
  2982    2991    1
  2982    2995    1
  2982    2996    1
  2982    2998    1
  2982    5021    1
  2983    2985    1
  2983    2986    1
  2983    2990    1
  2983    2993    1
  2983    2994    1
  2983    2997    1
  2984    2989    1
  2984    2990    1
  2984    2993    1
  2984    2995    1
  2984    2996    1
  2984    2999    1
  2984    5022    1
  2985    2987    1
  2985    2988    1
  2985    2992    1
  2985    2994    1
  2985    2998    1
  2986    2991    1
  2986    2993    1
  2986    2998    1
  2986    5021    1
  2986    5023    1
  2987    2989    1
  2987    2990    1
  2987    2992    1
  2987    2995    1
  2987    2996    1
  2987    2997    1
  2987    5022    1
  2988    2993    1
  2988    2995    1
  2988    2996    1
  2988    2997    1
  2988    5014    1
  2988    5016    1
  2988    5024    1
  2989    2991    1
  2989    2992    1
  2989    2994    1
  2989    5021    1
  2989    5023    1
  2990    2995    1
  2990    2996    1
  2990    5015    1
  2990    5017    1
  2990    5023    1
  2991    2993    1
  2991    2994    1
  2991    5016    1
  2991    5022    1
  2992    2997    1
  2992    5016    1
  2992    5022    1
  2993    2995    1
  2993    2996    1
  2993    5021    1
  2994    2997    1
  2994    5021    1
  2994    5022    1
  2998    3000    1
  2998    3001    1
  3000    3003    1
  3000    3004    1
  3000    3007    1
  3001    3005    1
  3001    3034    1
  3001    3036    1
  3002    3006    1
  3002    3007    1
  3002    3029    1
  3002    3035    1
  3003    3005    1
  3003    3034    1
  3004    3008    1
  3004    3009    1
  3004    3027    1
  3004    3030    1
  3004    3031    1
  3004    3036    1
  3005    3010    1
  3005    3011    1
  3005    3014    1
  3005    3028    1
  3005    3032    1
  3005    3033    1
  3005    3035    1
  3006    3008    1
  3006    3009    1
  3006    3027    1
  3006    3030    1
  3006    3031    1
  3006    3034    1
  3007    3012    1
  3007    3013    1
  3007    3027    1
  3007    3030    1
  3007    3032    1
  3007    3033    1
  3007    3036    1
  3008    3010    1
  3008    3011    1
  3008    3029    1
  3008    3031    1
  3008    3035    1
  3009    3014    1
  3009    3022    1
  3009    3028    1
  3009    3030    1
  3009    3035    1
  3010    3012    1
  3010    3013    1
  3010    3027    1
  3010    3029    1
  3010    3032    1
  3010    3033    1
  3010    3034    1
  3011    3015    1
  3011    3021    1
  3011    3023    1
  3011    3030    1
  3011    3032    1
  3011    3033    1
  3011    3034    1
  3012    3014    1
  3012    3022    1
  3012    3028    1
  3012    3029    1
  3012    3031    1
  3013    3016    1
  3013    3020    1
  3013    3024    1
  3013    3025    1
  3013    3026    1
  3013    3028    1
  3013    3029    1
  3013    3031    1
  3013    3956    1
  3014    3017    1
  3014    3018    1
  3014    3019    1
  3014    3021    1
  3014    3023    1
  3014    3030    1
  3014    3031    1
  3014    3954    1
  3015    3022    1
  3015    3028    1
  3015    3029    1
  3015    3952    1
  3015    3955    1
  3015    3956    1
  3016    3021    1
  3016    3027    1
  3016    3954    1
  3017    3020    1
  3018    3020    1
  3019    3020    1
  3020    3023    1
  3020    3027    1
  3020    3950    1
  3020    3953    1
  3020    3957    1
  3020    3958    1
  3020    3960    1
  3021    3024    1
  3021    3025    1
  3021    3026    1
  3021    3948    1
  3021    3952    1
  3021    3955    1
  3021    3959    1
  3021    3960    1
  3022    3027    1
  3022    3954    1
  3022    3957    1
  3022    3958    1
  3023    3956    1
  3027    3032    1
  3027    3033    1
  3028    3030    1
  3028    3031    1
  3029    3034    1
  3030    3032    1
  3030    3033    1
  3031    3034    1
  3037    3043    1
  3037    3044    1
  3037    3045    1
  3037    3047    1
  3037    3067    1
  3037    3069    1
  3037    3071    1
  3038    3042    1
  3038    3046    1
  3038    3070    1
  3039    3042    1
  3039    3046    1
  3039    3070    1
  3040    3042    1
  3040    3046    1
  3040    3070    1
  3041    3048    1
  3041    3066    1
  3041    3068    1
  3041    3072    1
  3041    3073    1
  3041    3104    1
  3042    3047    1
  3042    3067    1
  3042    3069    1
  3042    3071    1
  3043    3046    1
  3043    3070    1
  3044    3046    1
  3044    3070    1
  3045    3046    1
  3045    3070    1
  3046    3049    1
  3046    3050    1
  3046    3053    1
  3046    3071    1
  3046    3104    1
  3047    3051    1
  3047    3066    1
  3047    3068    1
  3047    3071    1
  3047    3103    1
  3047    3105    1
  3048    3052    1
  3048    3053    1
  3048    3061    1
  3048    3067    1
  3048    3070    1
  3048    3104    1
  3049    3051    1
  3049    3066    1
  3049    3069    1
  3050    3054    1
  3050    3055    1
  3050    3059    1
  3050    3062    1
  3050    3063    1
  3050    3068    1
  3050    3069    1
  3051    3056    1
  3051    3057    1
  3051    3060    1
  3051    3064    1
  3051    3065    1
  3051    3067    1
  3051    3365    1
  3052    3054    1
  3052    3055    1
  3052    3059    1
  3052    3062    1
  3052    3063    1
  3052    3066    1
  3053    3058    1
  3053    3059    1
  3053    3062    1
  3053    3064    1
  3053    3065    1
  3053    3068    1
  3053    3366    1
  3054    3056    1
  3054    3057    1
  3054    3061    1
  3054    3063    1
  3054    3067    1
  3055    3060    1
  3055    3062    1
  3055    3067    1
  3055    3365    1
  3055    3367    1
  3056    3058    1
  3056    3059    1
  3056    3061    1
  3056    3064    1
  3056    3065    1
  3056    3066    1
  3056    3366    1
  3057    3062    1
  3057    3064    1
  3057    3065    1
  3057    3066    1
  3057    3358    1
  3057    3360    1
  3057    3368    1
  3058    3060    1
  3058    3061    1
  3058    3063    1
  3058    3365    1
  3058    3367    1
  3059    3064    1
  3059    3065    1
  3059    3359    1
  3059    3361    1
  3059    3367    1
  3060    3062    1
  3060    3063    1
  3060    3360    1
  3060    3366    1
  3061    3066    1
  3061    3360    1
  3061    3366    1
  3062    3064    1
  3062    3065    1
  3062    3365    1
  3063    3066    1
  3063    3365    1
  3063    3366    1
  3067    3069    1
  3067    3070    1
  3069    3072    1
  3069    3073    1
  3069    3076    1
  3070    3074    1
  3070    3103    1
  3070    3105    1
  3071    3075    1
  3071    3076    1
  3071    3098    1
  3071    3104    1
  3072    3074    1
  3072    3103    1
  3073    3077    1
  3073    3078    1
  3073    3096    1
  3073    3099    1
  3073    3100    1
  3073    3105    1
  3074    3079    1
  3074    3080    1
  3074    3083    1
  3074    3097    1
  3074    3101    1
  3074    3102    1
  3074    3104    1
  3075    3077    1
  3075    3078    1
  3075    3096    1
  3075    3099    1
  3075    3100    1
  3075    3103    1
  3076    3081    1
  3076    3082    1
  3076    3096    1
  3076    3099    1
  3076    3101    1
  3076    3102    1
  3076    3105    1
  3077    3079    1
  3077    3080    1
  3077    3098    1
  3077    3100    1
  3077    3104    1
  3078    3083    1
  3078    3091    1
  3078    3097    1
  3078    3099    1
  3078    3104    1
  3079    3081    1
  3079    3082    1
  3079    3096    1
  3079    3098    1
  3079    3101    1
  3079    3102    1
  3079    3103    1
  3080    3084    1
  3080    3090    1
  3080    3092    1
  3080    3099    1
  3080    3101    1
  3080    3102    1
  3080    3103    1
  3081    3083    1
  3081    3091    1
  3081    3097    1
  3081    3098    1
  3081    3100    1
  3082    3085    1
  3082    3089    1
  3082    3093    1
  3082    3094    1
  3082    3095    1
  3082    3097    1
  3082    3098    1
  3082    3100    1
  3083    3086    1
  3083    3087    1
  3083    3088    1
  3083    3090    1
  3083    3092    1
  3083    3099    1
  3083    3100    1
  3084    3091    1
  3084    3097    1
  3084    3098    1
  3085    3090    1
  3085    3096    1
  3086    3089    1
  3087    3089    1
  3088    3089    1
  3089    3092    1
  3089    3096    1
  3090    3093    1
  3090    3094    1
  3090    3095    1
  3091    3096    1
  3096    3101    1
  3096    3102    1
  3097    3099    1
  3097    3100    1
  3098    3103    1
  3099    3101    1
  3099    3102    1
  3100    3103    1
  3106    3112    1
  3106    3113    1
  3106    3114    1
  3106    3116    1
  3106    3136    1
  3106    3138    1
  3106    3140    1
  3107    3111    1
  3107    3115    1
  3107    3139    1
  3108    3111    1
  3108    3115    1
  3108    3139    1
  3109    3111    1
  3109    3115    1
  3109    3139    1
  3110    3117    1
  3110    3135    1
  3110    3137    1
  3110    3141    1
  3110    3142    1
  3110    3173    1
  3111    3116    1
  3111    3136    1
  3111    3138    1
  3111    3140    1
  3112    3115    1
  3112    3139    1
  3113    3115    1
  3113    3139    1
  3114    3115    1
  3114    3139    1
  3115    3118    1
  3115    3119    1
  3115    3122    1
  3115    3140    1
  3115    3173    1
  3116    3120    1
  3116    3135    1
  3116    3137    1
  3116    3140    1
  3116    3172    1
  3116    3174    1
  3117    3121    1
  3117    3122    1
  3117    3130    1
  3117    3136    1
  3117    3139    1
  3117    3173    1
  3118    3120    1
  3118    3135    1
  3118    3138    1
  3119    3123    1
  3119    3124    1
  3119    3128    1
  3119    3131    1
  3119    3132    1
  3119    3137    1
  3119    3138    1
  3120    3125    1
  3120    3126    1
  3120    3129    1
  3120    3133    1
  3120    3134    1
  3120    3136    1
  3121    3123    1
  3121    3124    1
  3121    3128    1
  3121    3131    1
  3121    3132    1
  3121    3135    1
  3122    3127    1
  3122    3128    1
  3122    3131    1
  3122    3133    1
  3122    3134    1
  3122    3137    1
  3123    3125    1
  3123    3126    1
  3123    3130    1
  3123    3132    1
  3123    3136    1
  3124    3129    1
  3124    3131    1
  3124    3136    1
  3125    3127    1
  3125    3128    1
  3125    3130    1
  3125    3133    1
  3125    3134    1
  3125    3135    1
  3126    3131    1
  3126    3133    1
  3126    3134    1
  3126    3135    1
  3127    3129    1
  3127    3130    1
  3127    3132    1
  3128    3133    1
  3128    3134    1
  3129    3131    1
  3129    3132    1
  3130    3135    1
  3131    3133    1
  3131    3134    1
  3132    3135    1
  3136    3138    1
  3136    3139    1
  3138    3141    1
  3138    3142    1
  3138    3145    1
  3139    3143    1
  3139    3172    1
  3139    3174    1
  3140    3144    1
  3140    3145    1
  3140    3167    1
  3140    3173    1
  3141    3143    1
  3141    3172    1
  3142    3146    1
  3142    3147    1
  3142    3165    1
  3142    3168    1
  3142    3169    1
  3142    3174    1
  3143    3148    1
  3143    3149    1
  3143    3152    1
  3143    3166    1
  3143    3170    1
  3143    3171    1
  3143    3173    1
  3144    3146    1
  3144    3147    1
  3144    3165    1
  3144    3168    1
  3144    3169    1
  3144    3172    1
  3145    3150    1
  3145    3151    1
  3145    3165    1
  3145    3168    1
  3145    3170    1
  3145    3171    1
  3145    3174    1
  3146    3148    1
  3146    3149    1
  3146    3167    1
  3146    3169    1
  3146    3173    1
  3147    3152    1
  3147    3160    1
  3147    3166    1
  3147    3168    1
  3147    3173    1
  3148    3150    1
  3148    3151    1
  3148    3165    1
  3148    3167    1
  3148    3170    1
  3148    3171    1
  3148    3172    1
  3149    3153    1
  3149    3159    1
  3149    3161    1
  3149    3168    1
  3149    3170    1
  3149    3171    1
  3149    3172    1
  3150    3152    1
  3150    3160    1
  3150    3166    1
  3150    3167    1
  3150    3169    1
  3151    3154    1
  3151    3158    1
  3151    3162    1
  3151    3163    1
  3151    3164    1
  3151    3166    1
  3151    3167    1
  3151    3169    1
  3151    3335    1
  3152    3155    1
  3152    3156    1
  3152    3157    1
  3152    3159    1
  3152    3161    1
  3152    3168    1
  3152    3169    1
  3152    3333    1
  3153    3160    1
  3153    3166    1
  3153    3167    1
  3153    3331    1
  3153    3334    1
  3153    3335    1
  3154    3159    1
  3154    3165    1
  3154    3333    1
  3155    3158    1
  3156    3158    1
  3157    3158    1
  3158    3161    1
  3158    3165    1
  3158    3329    1
  3158    3332    1
  3158    3336    1
  3158    3337    1
  3158    3339    1
  3159    3162    1
  3159    3163    1
  3159    3164    1
  3159    3327    1
  3159    3331    1
  3159    3334    1
  3159    3338    1
  3159    3339    1
  3160    3165    1
  3160    3333    1
  3160    3336    1
  3160    3337    1
  3161    3335    1
  3165    3170    1
  3165    3171    1
  3166    3168    1
  3166    3169    1
  3167    3172    1
  3168    3170    1
  3168    3171    1
  3169    3172    1
  3175    3181    1
  3175    3182    1
  3175    3183    1
  3175    3185    1
  3175    3205    1
  3175    3207    1
  3175    3209    1
  3176    3180    1
  3176    3184    1
  3176    3208    1
  3177    3180    1
  3177    3184    1
  3177    3208    1
  3178    3180    1
  3178    3184    1
  3178    3208    1
  3179    3186    1
  3179    3204    1
  3179    3206    1
  3179    3210    1
  3179    3211    1
  3179    3242    1
  3180    3185    1
  3180    3205    1
  3180    3207    1
  3180    3209    1
  3181    3184    1
  3181    3208    1
  3182    3184    1
  3182    3208    1
  3183    3184    1
  3183    3208    1
  3184    3187    1
  3184    3188    1
  3184    3191    1
  3184    3209    1
  3184    3242    1
  3185    3189    1
  3185    3204    1
  3185    3206    1
  3185    3209    1
  3185    3241    1
  3185    3243    1
  3186    3190    1
  3186    3191    1
  3186    3199    1
  3186    3205    1
  3186    3208    1
  3186    3242    1
  3187    3189    1
  3187    3204    1
  3187    3207    1
  3188    3192    1
  3188    3193    1
  3188    3197    1
  3188    3200    1
  3188    3201    1
  3188    3206    1
  3188    3207    1
  3189    3194    1
  3189    3195    1
  3189    3198    1
  3189    3202    1
  3189    3203    1
  3189    3205    1
  3190    3192    1
  3190    3193    1
  3190    3197    1
  3190    3200    1
  3190    3201    1
  3190    3204    1
  3191    3196    1
  3191    3197    1
  3191    3200    1
  3191    3202    1
  3191    3203    1
  3191    3206    1
  3192    3194    1
  3192    3195    1
  3192    3199    1
  3192    3201    1
  3192    3205    1
  3193    3198    1
  3193    3200    1
  3193    3205    1
  3194    3196    1
  3194    3197    1
  3194    3199    1
  3194    3202    1
  3194    3203    1
  3194    3204    1
  3195    3200    1
  3195    3202    1
  3195    3203    1
  3195    3204    1
  3196    3198    1
  3196    3199    1
  3196    3201    1
  3197    3202    1
  3197    3203    1
  3198    3200    1
  3198    3201    1
  3199    3204    1
  3200    3202    1
  3200    3203    1
  3201    3204    1
  3205    3207    1
  3205    3208    1
  3207    3210    1
  3207    3211    1
  3207    3214    1
  3208    3212    1
  3208    3241    1
  3208    3243    1
  3209    3213    1
  3209    3214    1
  3209    3236    1
  3209    3242    1
  3210    3212    1
  3210    3241    1
  3211    3215    1
  3211    3216    1
  3211    3234    1
  3211    3237    1
  3211    3238    1
  3211    3243    1
  3212    3217    1
  3212    3218    1
  3212    3221    1
  3212    3235    1
  3212    3239    1
  3212    3240    1
  3212    3242    1
  3213    3215    1
  3213    3216    1
  3213    3234    1
  3213    3237    1
  3213    3238    1
  3213    3241    1
  3214    3219    1
  3214    3220    1
  3214    3234    1
  3214    3237    1
  3214    3239    1
  3214    3240    1
  3214    3243    1
  3215    3217    1
  3215    3218    1
  3215    3236    1
  3215    3238    1
  3215    3242    1
  3216    3221    1
  3216    3229    1
  3216    3235    1
  3216    3237    1
  3216    3242    1
  3217    3219    1
  3217    3220    1
  3217    3234    1
  3217    3236    1
  3217    3239    1
  3217    3240    1
  3217    3241    1
  3218    3222    1
  3218    3228    1
  3218    3230    1
  3218    3237    1
  3218    3239    1
  3218    3240    1
  3218    3241    1
  3219    3221    1
  3219    3229    1
  3219    3235    1
  3219    3236    1
  3219    3238    1
  3220    3223    1
  3220    3227    1
  3220    3231    1
  3220    3232    1
  3220    3233    1
  3220    3235    1
  3220    3236    1
  3220    3238    1
  3221    3224    1
  3221    3225    1
  3221    3226    1
  3221    3228    1
  3221    3230    1
  3221    3237    1
  3221    3238    1
  3222    3229    1
  3222    3235    1
  3222    3236    1
  3223    3228    1
  3223    3234    1
  3224    3227    1
  3225    3227    1
  3226    3227    1
  3227    3230    1
  3227    3234    1
  3228    3231    1
  3228    3232    1
  3228    3233    1
  3229    3234    1
  3234    3239    1
  3234    3240    1
  3235    3237    1
  3235    3238    1
  3236    3241    1
  3237    3239    1
  3237    3240    1
  3238    3241    1
  3244    3250    1
  3244    3251    1
  3244    3252    1
  3244    3254    1
  3244    3274    1
  3244    3276    1
  3244    3278    1
  3245    3249    1
  3245    3253    1
  3245    3277    1
  3246    3249    1
  3246    3253    1
  3246    3277    1
  3247    3249    1
  3247    3253    1
  3247    3277    1
  3248    3255    1
  3248    3273    1
  3248    3275    1
  3248    3279    1
  3248    3280    1
  3248    3311    1
  3249    3254    1
  3249    3274    1
  3249    3276    1
  3249    3278    1
  3250    3253    1
  3250    3277    1
  3251    3253    1
  3251    3277    1
  3252    3253    1
  3252    3277    1
  3253    3256    1
  3253    3257    1
  3253    3260    1
  3253    3278    1
  3253    3311    1
  3254    3258    1
  3254    3273    1
  3254    3275    1
  3254    3278    1
  3254    3310    1
  3254    3312    1
  3255    3259    1
  3255    3260    1
  3255    3268    1
  3255    3274    1
  3255    3277    1
  3255    3311    1
  3256    3258    1
  3256    3273    1
  3256    3276    1
  3257    3261    1
  3257    3262    1
  3257    3266    1
  3257    3269    1
  3257    3270    1
  3257    3275    1
  3257    3276    1
  3258    3263    1
  3258    3264    1
  3258    3267    1
  3258    3271    1
  3258    3272    1
  3258    3274    1
  3259    3261    1
  3259    3262    1
  3259    3266    1
  3259    3269    1
  3259    3270    1
  3259    3273    1
  3260    3265    1
  3260    3266    1
  3260    3269    1
  3260    3271    1
  3260    3272    1
  3260    3275    1
  3261    3263    1
  3261    3264    1
  3261    3268    1
  3261    3270    1
  3261    3274    1
  3262    3267    1
  3262    3269    1
  3262    3274    1
  3263    3265    1
  3263    3266    1
  3263    3268    1
  3263    3271    1
  3263    3272    1
  3263    3273    1
  3264    3269    1
  3264    3271    1
  3264    3272    1
  3264    3273    1
  3265    3267    1
  3265    3268    1
  3265    3270    1
  3266    3271    1
  3266    3272    1
  3267    3269    1
  3267    3270    1
  3268    3273    1
  3269    3271    1
  3269    3272    1
  3270    3273    1
  3274    3276    1
  3274    3277    1
  3276    3279    1
  3276    3280    1
  3276    3283    1
  3277    3281    1
  3277    3310    1
  3277    3312    1
  3278    3282    1
  3278    3283    1
  3278    3305    1
  3278    3311    1
  3279    3281    1
  3279    3310    1
  3280    3284    1
  3280    3285    1
  3280    3303    1
  3280    3306    1
  3280    3307    1
  3280    3312    1
  3281    3286    1
  3281    3287    1
  3281    3290    1
  3281    3304    1
  3281    3308    1
  3281    3309    1
  3281    3311    1
  3282    3284    1
  3282    3285    1
  3282    3303    1
  3282    3306    1
  3282    3307    1
  3282    3310    1
  3283    3288    1
  3283    3289    1
  3283    3303    1
  3283    3306    1
  3283    3308    1
  3283    3309    1
  3283    3312    1
  3284    3286    1
  3284    3287    1
  3284    3305    1
  3284    3307    1
  3284    3311    1
  3285    3290    1
  3285    3298    1
  3285    3304    1
  3285    3306    1
  3285    3311    1
  3286    3288    1
  3286    3289    1
  3286    3303    1
  3286    3305    1
  3286    3308    1
  3286    3309    1
  3286    3310    1
  3287    3291    1
  3287    3297    1
  3287    3299    1
  3287    3306    1
  3287    3308    1
  3287    3309    1
  3287    3310    1
  3288    3290    1
  3288    3298    1
  3288    3304    1
  3288    3305    1
  3288    3307    1
  3289    3292    1
  3289    3296    1
  3289    3300    1
  3289    3301    1
  3289    3302    1
  3289    3304    1
  3289    3305    1
  3289    3307    1
  3289    5750    1
  3290    3293    1
  3290    3294    1
  3290    3295    1
  3290    3297    1
  3290    3299    1
  3290    3306    1
  3290    3307    1
  3290    5748    1
  3291    3298    1
  3291    3304    1
  3291    3305    1
  3291    5746    1
  3291    5749    1
  3291    5750    1
  3292    3297    1
  3292    3303    1
  3292    5748    1
  3293    3296    1
  3294    3296    1
  3295    3296    1
  3296    3299    1
  3296    3303    1
  3296    5744    1
  3296    5747    1
  3296    5751    1
  3296    5752    1
  3296    5754    1
  3297    3300    1
  3297    3301    1
  3297    3302    1
  3297    5742    1
  3297    5746    1
  3297    5749    1
  3297    5753    1
  3297    5754    1
  3298    3303    1
  3298    5748    1
  3298    5751    1
  3298    5752    1
  3299    5750    1
  3303    3308    1
  3303    3309    1
  3304    3306    1
  3304    3307    1
  3305    3310    1
  3306    3308    1
  3306    3309    1
  3307    3310    1
  3313    3319    1
  3313    3320    1
  3313    3321    1
  3313    3323    1
  3313    3343    1
  3313    3345    1
  3313    3347    1
  3314    3318    1
  3314    3322    1
  3314    3346    1
  3315    3318    1
  3315    3322    1
  3315    3346    1
  3316    3318    1
  3316    3322    1
  3316    3346    1
  3317    3324    1
  3317    3342    1
  3317    3344    1
  3317    3348    1
  3317    3349    1
  3317    3380    1
  3318    3323    1
  3318    3343    1
  3318    3345    1
  3318    3347    1
  3319    3322    1
  3319    3346    1
  3320    3322    1
  3320    3346    1
  3321    3322    1
  3321    3346    1
  3322    3325    1
  3322    3326    1
  3322    3329    1
  3322    3347    1
  3322    3380    1
  3323    3327    1
  3323    3342    1
  3323    3344    1
  3323    3347    1
  3323    3379    1
  3323    3381    1
  3324    3328    1
  3324    3329    1
  3324    3337    1
  3324    3343    1
  3324    3346    1
  3324    3380    1
  3325    3327    1
  3325    3342    1
  3325    3345    1
  3326    3330    1
  3326    3331    1
  3326    3335    1
  3326    3338    1
  3326    3339    1
  3326    3344    1
  3326    3345    1
  3327    3332    1
  3327    3333    1
  3327    3336    1
  3327    3340    1
  3327    3341    1
  3327    3343    1
  3328    3330    1
  3328    3331    1
  3328    3335    1
  3328    3338    1
  3328    3339    1
  3328    3342    1
  3329    3334    1
  3329    3335    1
  3329    3338    1
  3329    3340    1
  3329    3341    1
  3329    3344    1
  3330    3332    1
  3330    3333    1
  3330    3337    1
  3330    3339    1
  3330    3343    1
  3331    3336    1
  3331    3338    1
  3331    3343    1
  3332    3334    1
  3332    3335    1
  3332    3337    1
  3332    3340    1
  3332    3341    1
  3332    3342    1
  3333    3338    1
  3333    3340    1
  3333    3341    1
  3333    3342    1
  3334    3336    1
  3334    3337    1
  3334    3339    1
  3335    3340    1
  3335    3341    1
  3336    3338    1
  3336    3339    1
  3337    3342    1
  3338    3340    1
  3338    3341    1
  3339    3342    1
  3343    3345    1
  3343    3346    1
  3345    3348    1
  3345    3349    1
  3345    3352    1
  3346    3350    1
  3346    3379    1
  3346    3381    1
  3347    3351    1
  3347    3352    1
  3347    3374    1
  3347    3380    1
  3348    3350    1
  3348    3379    1
  3349    3353    1
  3349    3354    1
  3349    3372    1
  3349    3375    1
  3349    3376    1
  3349    3381    1
  3350    3355    1
  3350    3356    1
  3350    3359    1
  3350    3373    1
  3350    3377    1
  3350    3378    1
  3350    3380    1
  3351    3353    1
  3351    3354    1
  3351    3372    1
  3351    3375    1
  3351    3376    1
  3351    3379    1
  3352    3357    1
  3352    3358    1
  3352    3372    1
  3352    3375    1
  3352    3377    1
  3352    3378    1
  3352    3381    1
  3353    3355    1
  3353    3356    1
  3353    3374    1
  3353    3376    1
  3353    3380    1
  3354    3359    1
  3354    3367    1
  3354    3373    1
  3354    3375    1
  3354    3380    1
  3355    3357    1
  3355    3358    1
  3355    3372    1
  3355    3374    1
  3355    3377    1
  3355    3378    1
  3355    3379    1
  3356    3360    1
  3356    3366    1
  3356    3368    1
  3356    3375    1
  3356    3377    1
  3356    3378    1
  3356    3379    1
  3357    3359    1
  3357    3367    1
  3357    3373    1
  3357    3374    1
  3357    3376    1
  3358    3361    1
  3358    3365    1
  3358    3369    1
  3358    3370    1
  3358    3371    1
  3358    3373    1
  3358    3374    1
  3358    3376    1
  3359    3362    1
  3359    3363    1
  3359    3364    1
  3359    3366    1
  3359    3368    1
  3359    3375    1
  3359    3376    1
  3360    3367    1
  3360    3373    1
  3360    3374    1
  3361    3366    1
  3361    3372    1
  3362    3365    1
  3363    3365    1
  3364    3365    1
  3365    3368    1
  3365    3372    1
  3366    3369    1
  3366    3370    1
  3366    3371    1
  3367    3372    1
  3372    3377    1
  3372    3378    1
  3373    3375    1
  3373    3376    1
  3374    3379    1
  3375    3377    1
  3375    3378    1
  3376    3379    1
  3382    3388    1
  3382    3389    1
  3382    3390    1
  3382    3392    1
  3382    3412    1
  3382    3414    1
  3382    3416    1
  3383    3387    1
  3383    3391    1
  3383    3415    1
  3384    3387    1
  3384    3391    1
  3384    3415    1
  3385    3387    1
  3385    3391    1
  3385    3415    1
  3386    3393    1
  3386    3411    1
  3386    3413    1
  3386    3417    1
  3386    3418    1
  3386    3449    1
  3387    3392    1
  3387    3412    1
  3387    3414    1
  3387    3416    1
  3388    3391    1
  3388    3415    1
  3389    3391    1
  3389    3415    1
  3390    3391    1
  3390    3415    1
  3391    3394    1
  3391    3395    1
  3391    3398    1
  3391    3416    1
  3391    3449    1
  3392    3396    1
  3392    3411    1
  3392    3413    1
  3392    3416    1
  3392    3448    1
  3392    3450    1
  3393    3397    1
  3393    3398    1
  3393    3406    1
  3393    3412    1
  3393    3415    1
  3393    3449    1
  3394    3396    1
  3394    3411    1
  3394    3414    1
  3395    3399    1
  3395    3400    1
  3395    3404    1
  3395    3407    1
  3395    3408    1
  3395    3413    1
  3395    3414    1
  3396    3401    1
  3396    3402    1
  3396    3405    1
  3396    3409    1
  3396    3410    1
  3396    3412    1
  3396    4539    1
  3397    3399    1
  3397    3400    1
  3397    3404    1
  3397    3407    1
  3397    3408    1
  3397    3411    1
  3398    3403    1
  3398    3404    1
  3398    3407    1
  3398    3409    1
  3398    3410    1
  3398    3413    1
  3398    4538    1
  3399    3401    1
  3399    3402    1
  3399    3406    1
  3399    3408    1
  3399    3412    1
  3400    3405    1
  3400    3407    1
  3400    3412    1
  3400    4533    1
  3400    4539    1
  3401    3403    1
  3401    3404    1
  3401    3406    1
  3401    3409    1
  3401    3410    1
  3401    3411    1
  3401    4538    1
  3402    3407    1
  3402    3409    1
  3402    3410    1
  3402    3411    1
  3402    4532    1
  3402    4534    1
  3402    4540    1
  3403    3405    1
  3403    3406    1
  3403    3408    1
  3403    4533    1
  3403    4539    1
  3404    3409    1
  3404    3410    1
  3404    4531    1
  3404    4533    1
  3404    4541    1
  3405    3407    1
  3405    3408    1
  3405    4538    1
  3405    4540    1
  3406    3411    1
  3406    4538    1
  3406    4540    1
  3407    3409    1
  3407    3410    1
  3407    4539    1
  3408    3411    1
  3408    4538    1
  3408    4539    1
  3412    3414    1
  3412    3415    1
  3414    3417    1
  3414    3418    1
  3414    3421    1
  3415    3419    1
  3415    3448    1
  3415    3450    1
  3416    3420    1
  3416    3421    1
  3416    3443    1
  3416    3449    1
  3417    3419    1
  3417    3448    1
  3418    3422    1
  3418    3423    1
  3418    3441    1
  3418    3444    1
  3418    3445    1
  3418    3450    1
  3419    3424    1
  3419    3425    1
  3419    3428    1
  3419    3442    1
  3419    3446    1
  3419    3447    1
  3419    3449    1
  3420    3422    1
  3420    3423    1
  3420    3441    1
  3420    3444    1
  3420    3445    1
  3420    3448    1
  3421    3426    1
  3421    3427    1
  3421    3441    1
  3421    3444    1
  3421    3446    1
  3421    3447    1
  3421    3450    1
  3422    3424    1
  3422    3425    1
  3422    3443    1
  3422    3445    1
  3422    3449    1
  3423    3428    1
  3423    3436    1
  3423    3442    1
  3423    3444    1
  3423    3449    1
  3424    3426    1
  3424    3427    1
  3424    3441    1
  3424    3443    1
  3424    3446    1
  3424    3447    1
  3424    3448    1
  3425    3429    1
  3425    3435    1
  3425    3437    1
  3425    3444    1
  3425    3446    1
  3425    3447    1
  3425    3448    1
  3426    3428    1
  3426    3436    1
  3426    3442    1
  3426    3443    1
  3426    3445    1
  3427    3430    1
  3427    3434    1
  3427    3438    1
  3427    3439    1
  3427    3440    1
  3427    3442    1
  3427    3443    1
  3427    3445    1
  3427    3609    1
  3428    3431    1
  3428    3432    1
  3428    3433    1
  3428    3435    1
  3428    3437    1
  3428    3444    1
  3428    3445    1
  3428    3611    1
  3429    3436    1
  3429    3442    1
  3429    3443    1
  3429    3609    1
  3429    3612    1
  3429    3613    1
  3430    3435    1
  3430    3441    1
  3430    3611    1
  3431    3434    1
  3432    3434    1
  3433    3434    1
  3434    3437    1
  3434    3441    1
  3434    3603    1
  3434    3607    1
  3434    3610    1
  3434    3614    1
  3434    3615    1
  3435    3438    1
  3435    3439    1
  3435    3440    1
  3435    3605    1
  3435    3608    1
  3435    3612    1
  3435    3613    1
  3435    3615    1
  3436    3441    1
  3436    3607    1
  3436    3610    1
  3436    3611    1
  3437    3609    1
  3441    3446    1
  3441    3447    1
  3442    3444    1
  3442    3445    1
  3443    3448    1
  3444    3446    1
  3444    3447    1
  3445    3448    1
  3451    3457    1
  3451    3458    1
  3451    3459    1
  3451    3461    1
  3451    3481    1
  3451    3483    1
  3451    3485    1
  3452    3456    1
  3452    3460    1
  3452    3484    1
  3453    3456    1
  3453    3460    1
  3453    3484    1
  3454    3456    1
  3454    3460    1
  3454    3484    1
  3455    3462    1
  3455    3480    1
  3455    3482    1
  3455    3486    1
  3455    3487    1
  3455    3518    1
  3456    3461    1
  3456    3481    1
  3456    3483    1
  3456    3485    1
  3457    3460    1
  3457    3484    1
  3458    3460    1
  3458    3484    1
  3459    3460    1
  3459    3484    1
  3460    3463    1
  3460    3464    1
  3460    3467    1
  3460    3485    1
  3460    3518    1
  3461    3465    1
  3461    3480    1
  3461    3482    1
  3461    3485    1
  3461    3517    1
  3461    3519    1
  3462    3466    1
  3462    3467    1
  3462    3475    1
  3462    3481    1
  3462    3484    1
  3462    3518    1
  3463    3465    1
  3463    3480    1
  3463    3483    1
  3464    3468    1
  3464    3469    1
  3464    3473    1
  3464    3476    1
  3464    3477    1
  3464    3482    1
  3464    3483    1
  3465    3470    1
  3465    3471    1
  3465    3474    1
  3465    3478    1
  3465    3479    1
  3465    3481    1
  3466    3468    1
  3466    3469    1
  3466    3473    1
  3466    3476    1
  3466    3477    1
  3466    3480    1
  3467    3472    1
  3467    3473    1
  3467    3476    1
  3467    3478    1
  3467    3479    1
  3467    3482    1
  3468    3470    1
  3468    3471    1
  3468    3475    1
  3468    3477    1
  3468    3481    1
  3469    3474    1
  3469    3476    1
  3469    3481    1
  3470    3472    1
  3470    3473    1
  3470    3475    1
  3470    3478    1
  3470    3479    1
  3470    3480    1
  3471    3476    1
  3471    3478    1
  3471    3479    1
  3471    3480    1
  3472    3474    1
  3472    3475    1
  3472    3477    1
  3473    3478    1
  3473    3479    1
  3474    3476    1
  3474    3477    1
  3475    3480    1
  3476    3478    1
  3476    3479    1
  3477    3480    1
  3481    3483    1
  3481    3484    1
  3483    3486    1
  3483    3487    1
  3483    3490    1
  3484    3488    1
  3484    3517    1
  3484    3519    1
  3485    3489    1
  3485    3490    1
  3485    3512    1
  3485    3518    1
  3486    3488    1
  3486    3517    1
  3487    3491    1
  3487    3492    1
  3487    3510    1
  3487    3513    1
  3487    3514    1
  3487    3519    1
  3488    3493    1
  3488    3494    1
  3488    3497    1
  3488    3511    1
  3488    3515    1
  3488    3516    1
  3488    3518    1
  3489    3491    1
  3489    3492    1
  3489    3510    1
  3489    3513    1
  3489    3514    1
  3489    3517    1
  3490    3495    1
  3490    3496    1
  3490    3510    1
  3490    3513    1
  3490    3515    1
  3490    3516    1
  3490    3519    1
  3491    3493    1
  3491    3494    1
  3491    3512    1
  3491    3514    1
  3491    3518    1
  3492    3497    1
  3492    3505    1
  3492    3511    1
  3492    3513    1
  3492    3518    1
  3493    3495    1
  3493    3496    1
  3493    3510    1
  3493    3512    1
  3493    3515    1
  3493    3516    1
  3493    3517    1
  3494    3498    1
  3494    3504    1
  3494    3506    1
  3494    3513    1
  3494    3515    1
  3494    3516    1
  3494    3517    1
  3495    3497    1
  3495    3505    1
  3495    3511    1
  3495    3512    1
  3495    3514    1
  3496    3499    1
  3496    3503    1
  3496    3507    1
  3496    3508    1
  3496    3509    1
  3496    3511    1
  3496    3512    1
  3496    3514    1
  3497    3500    1
  3497    3501    1
  3497    3502    1
  3497    3504    1
  3497    3506    1
  3497    3513    1
  3497    3514    1
  3498    3505    1
  3498    3511    1
  3498    3512    1
  3499    3504    1
  3499    3510    1
  3500    3503    1
  3501    3503    1
  3502    3503    1
  3503    3506    1
  3503    3510    1
  3504    3507    1
  3504    3508    1
  3504    3509    1
  3505    3510    1
  3510    3515    1
  3510    3516    1
  3511    3513    1
  3511    3514    1
  3512    3517    1
  3513    3515    1
  3513    3516    1
  3514    3517    1
  3520    3526    1
  3520    3527    1
  3520    3528    1
  3520    3530    1
  3520    3550    1
  3520    3552    1
  3520    3554    1
  3521    3525    1
  3521    3529    1
  3521    3553    1
  3522    3525    1
  3522    3529    1
  3522    3553    1
  3523    3525    1
  3523    3529    1
  3523    3553    1
  3524    3531    1
  3524    3549    1
  3524    3551    1
  3524    3555    1
  3524    3556    1
  3524    3587    1
  3525    3530    1
  3525    3550    1
  3525    3552    1
  3525    3554    1
  3526    3529    1
  3526    3553    1
  3527    3529    1
  3527    3553    1
  3528    3529    1
  3528    3553    1
  3529    3532    1
  3529    3533    1
  3529    3536    1
  3529    3554    1
  3529    3587    1
  3530    3534    1
  3530    3549    1
  3530    3551    1
  3530    3554    1
  3530    3586    1
  3530    3588    1
  3531    3535    1
  3531    3536    1
  3531    3544    1
  3531    3550    1
  3531    3553    1
  3531    3587    1
  3532    3534    1
  3532    3549    1
  3532    3552    1
  3533    3537    1
  3533    3538    1
  3533    3542    1
  3533    3545    1
  3533    3546    1
  3533    3551    1
  3533    3552    1
  3534    3539    1
  3534    3540    1
  3534    3543    1
  3534    3547    1
  3534    3548    1
  3534    3550    1
  3535    3537    1
  3535    3538    1
  3535    3542    1
  3535    3545    1
  3535    3546    1
  3535    3549    1
  3536    3541    1
  3536    3542    1
  3536    3545    1
  3536    3547    1
  3536    3548    1
  3536    3551    1
  3537    3539    1
  3537    3540    1
  3537    3544    1
  3537    3546    1
  3537    3550    1
  3538    3543    1
  3538    3545    1
  3538    3550    1
  3539    3541    1
  3539    3542    1
  3539    3544    1
  3539    3547    1
  3539    3548    1
  3539    3549    1
  3540    3545    1
  3540    3547    1
  3540    3548    1
  3540    3549    1
  3541    3543    1
  3541    3544    1
  3541    3546    1
  3542    3547    1
  3542    3548    1
  3543    3545    1
  3543    3546    1
  3544    3549    1
  3545    3547    1
  3545    3548    1
  3546    3549    1
  3550    3552    1
  3550    3553    1
  3552    3555    1
  3552    3556    1
  3552    3559    1
  3553    3557    1
  3553    3586    1
  3553    3588    1
  3554    3558    1
  3554    3559    1
  3554    3581    1
  3554    3587    1
  3555    3557    1
  3555    3586    1
  3556    3560    1
  3556    3561    1
  3556    3579    1
  3556    3582    1
  3556    3583    1
  3556    3588    1
  3557    3562    1
  3557    3563    1
  3557    3566    1
  3557    3580    1
  3557    3584    1
  3557    3585    1
  3557    3587    1
  3558    3560    1
  3558    3561    1
  3558    3579    1
  3558    3582    1
  3558    3583    1
  3558    3586    1
  3559    3564    1
  3559    3565    1
  3559    3579    1
  3559    3582    1
  3559    3584    1
  3559    3585    1
  3559    3588    1
  3560    3562    1
  3560    3563    1
  3560    3581    1
  3560    3583    1
  3560    3587    1
  3561    3566    1
  3561    3574    1
  3561    3580    1
  3561    3582    1
  3561    3587    1
  3562    3564    1
  3562    3565    1
  3562    3579    1
  3562    3581    1
  3562    3584    1
  3562    3585    1
  3562    3586    1
  3563    3567    1
  3563    3573    1
  3563    3575    1
  3563    3582    1
  3563    3584    1
  3563    3585    1
  3563    3586    1
  3564    3566    1
  3564    3574    1
  3564    3580    1
  3564    3581    1
  3564    3583    1
  3565    3568    1
  3565    3572    1
  3565    3576    1
  3565    3577    1
  3565    3578    1
  3565    3580    1
  3565    3581    1
  3565    3583    1
  3565    6576    1
  3566    3569    1
  3566    3570    1
  3566    3571    1
  3566    3573    1
  3566    3575    1
  3566    3582    1
  3566    3583    1
  3566    6578    1
  3567    3574    1
  3567    3580    1
  3567    3581    1
  3567    6576    1
  3567    6579    1
  3567    6580    1
  3568    3573    1
  3568    3579    1
  3568    6578    1
  3569    3572    1
  3570    3572    1
  3571    3572    1
  3572    3575    1
  3572    3579    1
  3572    6570    1
  3572    6574    1
  3572    6577    1
  3572    6581    1
  3572    6582    1
  3573    3576    1
  3573    3577    1
  3573    3578    1
  3573    6572    1
  3573    6575    1
  3573    6579    1
  3573    6580    1
  3573    6582    1
  3574    3579    1
  3574    6574    1
  3574    6577    1
  3574    6578    1
  3575    6576    1
  3579    3584    1
  3579    3585    1
  3580    3582    1
  3580    3583    1
  3581    3586    1
  3582    3584    1
  3582    3585    1
  3583    3586    1
  3589    3595    1
  3589    3596    1
  3589    3597    1
  3589    3599    1
  3589    3619    1
  3589    3621    1
  3589    3623    1
  3590    3594    1
  3590    3598    1
  3590    3622    1
  3591    3594    1
  3591    3598    1
  3591    3622    1
  3592    3594    1
  3592    3598    1
  3592    3622    1
  3593    3600    1
  3593    3618    1
  3593    3620    1
  3593    3624    1
  3593    3625    1
  3593    3656    1
  3594    3599    1
  3594    3619    1
  3594    3621    1
  3594    3623    1
  3595    3598    1
  3595    3622    1
  3596    3598    1
  3596    3622    1
  3597    3598    1
  3597    3622    1
  3598    3601    1
  3598    3602    1
  3598    3605    1
  3598    3623    1
  3598    3656    1
  3599    3603    1
  3599    3618    1
  3599    3620    1
  3599    3623    1
  3599    3655    1
  3599    3657    1
  3600    3604    1
  3600    3605    1
  3600    3613    1
  3600    3619    1
  3600    3622    1
  3600    3656    1
  3601    3603    1
  3601    3618    1
  3601    3621    1
  3602    3606    1
  3602    3607    1
  3602    3611    1
  3602    3614    1
  3602    3615    1
  3602    3620    1
  3602    3621    1
  3603    3608    1
  3603    3609    1
  3603    3612    1
  3603    3616    1
  3603    3617    1
  3603    3619    1
  3604    3606    1
  3604    3607    1
  3604    3611    1
  3604    3614    1
  3604    3615    1
  3604    3618    1
  3605    3610    1
  3605    3611    1
  3605    3614    1
  3605    3616    1
  3605    3617    1
  3605    3620    1
  3606    3608    1
  3606    3609    1
  3606    3613    1
  3606    3615    1
  3606    3619    1
  3607    3612    1
  3607    3614    1
  3607    3619    1
  3608    3610    1
  3608    3611    1
  3608    3613    1
  3608    3616    1
  3608    3617    1
  3608    3618    1
  3609    3614    1
  3609    3616    1
  3609    3617    1
  3609    3618    1
  3610    3612    1
  3610    3613    1
  3610    3615    1
  3611    3616    1
  3611    3617    1
  3612    3614    1
  3612    3615    1
  3613    3618    1
  3614    3616    1
  3614    3617    1
  3615    3618    1
  3619    3621    1
  3619    3622    1
  3621    3624    1
  3621    3625    1
  3621    3628    1
  3622    3626    1
  3622    3655    1
  3622    3657    1
  3623    3627    1
  3623    3628    1
  3623    3650    1
  3623    3656    1
  3624    3626    1
  3624    3655    1
  3625    3629    1
  3625    3630    1
  3625    3648    1
  3625    3651    1
  3625    3652    1
  3625    3657    1
  3626    3631    1
  3626    3632    1
  3626    3635    1
  3626    3649    1
  3626    3653    1
  3626    3654    1
  3626    3656    1
  3627    3629    1
  3627    3630    1
  3627    3648    1
  3627    3651    1
  3627    3652    1
  3627    3655    1
  3628    3633    1
  3628    3634    1
  3628    3648    1
  3628    3651    1
  3628    3653    1
  3628    3654    1
  3628    3657    1
  3629    3631    1
  3629    3632    1
  3629    3650    1
  3629    3652    1
  3629    3656    1
  3630    3635    1
  3630    3643    1
  3630    3649    1
  3630    3651    1
  3630    3656    1
  3631    3633    1
  3631    3634    1
  3631    3648    1
  3631    3650    1
  3631    3653    1
  3631    3654    1
  3631    3655    1
  3632    3636    1
  3632    3642    1
  3632    3644    1
  3632    3651    1
  3632    3653    1
  3632    3654    1
  3632    3655    1
  3633    3635    1
  3633    3643    1
  3633    3649    1
  3633    3650    1
  3633    3652    1
  3634    3637    1
  3634    3641    1
  3634    3645    1
  3634    3646    1
  3634    3647    1
  3634    3649    1
  3634    3650    1
  3634    3652    1
  3635    3638    1
  3635    3639    1
  3635    3640    1
  3635    3642    1
  3635    3644    1
  3635    3651    1
  3635    3652    1
  3636    3643    1
  3636    3649    1
  3636    3650    1
  3637    3642    1
  3637    3648    1
  3638    3641    1
  3639    3641    1
  3640    3641    1
  3641    3644    1
  3641    3648    1
  3642    3645    1
  3642    3646    1
  3642    3647    1
  3643    3648    1
  3648    3653    1
  3648    3654    1
  3649    3651    1
  3649    3652    1
  3650    3655    1
  3651    3653    1
  3651    3654    1
  3652    3655    1
  3658    3664    1
  3658    3665    1
  3658    3666    1
  3658    3668    1
  3658    3688    1
  3658    3690    1
  3658    3692    1
  3659    3663    1
  3659    3667    1
  3659    3691    1
  3660    3663    1
  3660    3667    1
  3660    3691    1
  3661    3663    1
  3661    3667    1
  3661    3691    1
  3662    3669    1
  3662    3687    1
  3662    3689    1
  3662    3693    1
  3662    3694    1
  3662    3725    1
  3663    3668    1
  3663    3688    1
  3663    3690    1
  3663    3692    1
  3664    3667    1
  3664    3691    1
  3665    3667    1
  3665    3691    1
  3666    3667    1
  3666    3691    1
  3667    3670    1
  3667    3671    1
  3667    3674    1
  3667    3692    1
  3667    3725    1
  3668    3672    1
  3668    3687    1
  3668    3689    1
  3668    3692    1
  3668    3724    1
  3668    3726    1
  3669    3673    1
  3669    3674    1
  3669    3682    1
  3669    3688    1
  3669    3691    1
  3669    3725    1
  3670    3672    1
  3670    3687    1
  3670    3690    1
  3671    3675    1
  3671    3676    1
  3671    3680    1
  3671    3683    1
  3671    3684    1
  3671    3689    1
  3671    3690    1
  3672    3677    1
  3672    3678    1
  3672    3681    1
  3672    3685    1
  3672    3686    1
  3672    3688    1
  3672    5436    1
  3673    3675    1
  3673    3676    1
  3673    3680    1
  3673    3683    1
  3673    3684    1
  3673    3687    1
  3674    3679    1
  3674    3680    1
  3674    3683    1
  3674    3685    1
  3674    3686    1
  3674    3689    1
  3674    5435    1
  3675    3677    1
  3675    3678    1
  3675    3682    1
  3675    3684    1
  3675    3688    1
  3676    3681    1
  3676    3683    1
  3676    3688    1
  3676    5430    1
  3676    5436    1
  3677    3679    1
  3677    3680    1
  3677    3682    1
  3677    3685    1
  3677    3686    1
  3677    3687    1
  3677    5435    1
  3678    3683    1
  3678    3685    1
  3678    3686    1
  3678    3687    1
  3678    5429    1
  3678    5431    1
  3678    5437    1
  3679    3681    1
  3679    3682    1
  3679    3684    1
  3679    5430    1
  3679    5436    1
  3680    3685    1
  3680    3686    1
  3680    5428    1
  3680    5430    1
  3680    5438    1
  3681    3683    1
  3681    3684    1
  3681    5435    1
  3681    5437    1
  3682    3687    1
  3682    5435    1
  3682    5437    1
  3683    3685    1
  3683    3686    1
  3683    5436    1
  3684    3687    1
  3684    5435    1
  3684    5436    1
  3688    3690    1
  3688    3691    1
  3690    3693    1
  3690    3694    1
  3690    3697    1
  3691    3695    1
  3691    3724    1
  3691    3726    1
  3692    3696    1
  3692    3697    1
  3692    3719    1
  3692    3725    1
  3693    3695    1
  3693    3724    1
  3694    3698    1
  3694    3699    1
  3694    3717    1
  3694    3720    1
  3694    3721    1
  3694    3726    1
  3695    3700    1
  3695    3701    1
  3695    3704    1
  3695    3718    1
  3695    3722    1
  3695    3723    1
  3695    3725    1
  3696    3698    1
  3696    3699    1
  3696    3717    1
  3696    3720    1
  3696    3721    1
  3696    3724    1
  3697    3702    1
  3697    3703    1
  3697    3717    1
  3697    3720    1
  3697    3722    1
  3697    3723    1
  3697    3726    1
  3698    3700    1
  3698    3701    1
  3698    3719    1
  3698    3721    1
  3698    3725    1
  3699    3704    1
  3699    3712    1
  3699    3718    1
  3699    3720    1
  3699    3725    1
  3700    3702    1
  3700    3703    1
  3700    3717    1
  3700    3719    1
  3700    3722    1
  3700    3723    1
  3700    3724    1
  3701    3705    1
  3701    3711    1
  3701    3713    1
  3701    3720    1
  3701    3722    1
  3701    3723    1
  3701    3724    1
  3702    3704    1
  3702    3712    1
  3702    3718    1
  3702    3719    1
  3702    3721    1
  3703    3706    1
  3703    3710    1
  3703    3714    1
  3703    3715    1
  3703    3716    1
  3703    3718    1
  3703    3719    1
  3703    3721    1
  3703    5472    1
  3704    3707    1
  3704    3708    1
  3704    3709    1
  3704    3711    1
  3704    3713    1
  3704    3720    1
  3704    3721    1
  3704    5474    1
  3705    3712    1
  3705    3718    1
  3705    3719    1
  3705    5472    1
  3705    5475    1
  3705    5476    1
  3706    3711    1
  3706    3717    1
  3706    5474    1
  3707    3710    1
  3708    3710    1
  3709    3710    1
  3710    3713    1
  3710    3717    1
  3710    5466    1
  3710    5470    1
  3710    5473    1
  3710    5477    1
  3710    5478    1
  3711    3714    1
  3711    3715    1
  3711    3716    1
  3711    5468    1
  3711    5471    1
  3711    5475    1
  3711    5476    1
  3711    5478    1
  3712    3717    1
  3712    5470    1
  3712    5473    1
  3712    5474    1
  3713    5472    1
  3717    3722    1
  3717    3723    1
  3718    3720    1
  3718    3721    1
  3719    3724    1
  3720    3722    1
  3720    3723    1
  3721    3724    1
  3727    3733    1
  3727    3734    1
  3727    3735    1
  3727    3737    1
  3727    3757    1
  3727    3759    1
  3727    3761    1
  3728    3732    1
  3728    3736    1
  3728    3760    1
  3729    3732    1
  3729    3736    1
  3729    3760    1
  3730    3732    1
  3730    3736    1
  3730    3760    1
  3731    3738    1
  3731    3756    1
  3731    3758    1
  3731    3762    1
  3731    3763    1
  3731    3794    1
  3732    3737    1
  3732    3757    1
  3732    3759    1
  3732    3761    1
  3733    3736    1
  3733    3760    1
  3734    3736    1
  3734    3760    1
  3735    3736    1
  3735    3760    1
  3736    3739    1
  3736    3740    1
  3736    3743    1
  3736    3761    1
  3736    3794    1
  3737    3741    1
  3737    3756    1
  3737    3758    1
  3737    3761    1
  3737    3793    1
  3737    3795    1
  3738    3742    1
  3738    3743    1
  3738    3751    1
  3738    3757    1
  3738    3760    1
  3738    3794    1
  3739    3741    1
  3739    3756    1
  3739    3759    1
  3740    3744    1
  3740    3745    1
  3740    3749    1
  3740    3752    1
  3740    3753    1
  3740    3758    1
  3740    3759    1
  3741    3746    1
  3741    3747    1
  3741    3750    1
  3741    3754    1
  3741    3755    1
  3741    3757    1
  3742    3744    1
  3742    3745    1
  3742    3749    1
  3742    3752    1
  3742    3753    1
  3742    3756    1
  3743    3748    1
  3743    3749    1
  3743    3752    1
  3743    3754    1
  3743    3755    1
  3743    3758    1
  3744    3746    1
  3744    3747    1
  3744    3751    1
  3744    3753    1
  3744    3757    1
  3745    3750    1
  3745    3752    1
  3745    3757    1
  3746    3748    1
  3746    3749    1
  3746    3751    1
  3746    3754    1
  3746    3755    1
  3746    3756    1
  3747    3752    1
  3747    3754    1
  3747    3755    1
  3747    3756    1
  3748    3750    1
  3748    3751    1
  3748    3753    1
  3749    3754    1
  3749    3755    1
  3750    3752    1
  3750    3753    1
  3751    3756    1
  3752    3754    1
  3752    3755    1
  3753    3756    1
  3757    3759    1
  3757    3760    1
  3759    3762    1
  3759    3763    1
  3759    3766    1
  3760    3764    1
  3760    3793    1
  3760    3795    1
  3761    3765    1
  3761    3766    1
  3761    3788    1
  3761    3794    1
  3762    3764    1
  3762    3793    1
  3763    3767    1
  3763    3768    1
  3763    3786    1
  3763    3789    1
  3763    3790    1
  3763    3795    1
  3764    3769    1
  3764    3770    1
  3764    3773    1
  3764    3787    1
  3764    3791    1
  3764    3792    1
  3764    3794    1
  3765    3767    1
  3765    3768    1
  3765    3786    1
  3765    3789    1
  3765    3790    1
  3765    3793    1
  3766    3771    1
  3766    3772    1
  3766    3786    1
  3766    3789    1
  3766    3791    1
  3766    3792    1
  3766    3795    1
  3767    3769    1
  3767    3770    1
  3767    3788    1
  3767    3790    1
  3767    3794    1
  3768    3773    1
  3768    3781    1
  3768    3787    1
  3768    3789    1
  3768    3794    1
  3769    3771    1
  3769    3772    1
  3769    3786    1
  3769    3788    1
  3769    3791    1
  3769    3792    1
  3769    3793    1
  3770    3774    1
  3770    3780    1
  3770    3782    1
  3770    3789    1
  3770    3791    1
  3770    3792    1
  3770    3793    1
  3771    3773    1
  3771    3781    1
  3771    3787    1
  3771    3788    1
  3771    3790    1
  3772    3775    1
  3772    3779    1
  3772    3783    1
  3772    3784    1
  3772    3785    1
  3772    3787    1
  3772    3788    1
  3772    3790    1
  3772    5058    1
  3773    3776    1
  3773    3777    1
  3773    3778    1
  3773    3780    1
  3773    3782    1
  3773    3789    1
  3773    3790    1
  3773    5060    1
  3774    3781    1
  3774    3787    1
  3774    3788    1
  3774    5058    1
  3774    5061    1
  3774    5062    1
  3775    3780    1
  3775    3786    1
  3775    5060    1
  3776    3779    1
  3777    3779    1
  3778    3779    1
  3779    3782    1
  3779    3786    1
  3779    5052    1
  3779    5056    1
  3779    5059    1
  3779    5063    1
  3779    5064    1
  3780    3783    1
  3780    3784    1
  3780    3785    1
  3780    5054    1
  3780    5057    1
  3780    5061    1
  3780    5062    1
  3780    5064    1
  3781    3786    1
  3781    5056    1
  3781    5059    1
  3781    5060    1
  3782    5058    1
  3786    3791    1
  3786    3792    1
  3787    3789    1
  3787    3790    1
  3788    3793    1
  3789    3791    1
  3789    3792    1
  3790    3793    1
  3796    3802    1
  3796    3803    1
  3796    3804    1
  3796    3806    1
  3796    3826    1
  3796    3828    1
  3796    3830    1
  3797    3801    1
  3797    3805    1
  3797    3829    1
  3798    3801    1
  3798    3805    1
  3798    3829    1
  3799    3801    1
  3799    3805    1
  3799    3829    1
  3800    3807    1
  3800    3825    1
  3800    3827    1
  3800    3831    1
  3800    3832    1
  3800    3863    1
  3801    3806    1
  3801    3826    1
  3801    3828    1
  3801    3830    1
  3802    3805    1
  3802    3829    1
  3803    3805    1
  3803    3829    1
  3804    3805    1
  3804    3829    1
  3805    3808    1
  3805    3809    1
  3805    3812    1
  3805    3830    1
  3805    3863    1
  3806    3810    1
  3806    3825    1
  3806    3827    1
  3806    3830    1
  3806    3862    1
  3806    3864    1
  3807    3811    1
  3807    3812    1
  3807    3820    1
  3807    3826    1
  3807    3829    1
  3807    3863    1
  3808    3810    1
  3808    3825    1
  3808    3828    1
  3809    3813    1
  3809    3814    1
  3809    3818    1
  3809    3821    1
  3809    3822    1
  3809    3827    1
  3809    3828    1
  3810    3815    1
  3810    3816    1
  3810    3819    1
  3810    3823    1
  3810    3824    1
  3810    3826    1
  3810    5849    1
  3811    3813    1
  3811    3814    1
  3811    3818    1
  3811    3821    1
  3811    3822    1
  3811    3825    1
  3812    3817    1
  3812    3818    1
  3812    3821    1
  3812    3823    1
  3812    3824    1
  3812    3827    1
  3812    5850    1
  3813    3815    1
  3813    3816    1
  3813    3820    1
  3813    3822    1
  3813    3826    1
  3814    3819    1
  3814    3821    1
  3814    3826    1
  3814    5849    1
  3814    5851    1
  3815    3817    1
  3815    3818    1
  3815    3820    1
  3815    3823    1
  3815    3824    1
  3815    3825    1
  3815    5850    1
  3816    3821    1
  3816    3823    1
  3816    3824    1
  3816    3825    1
  3816    5842    1
  3816    5844    1
  3816    5852    1
  3817    3819    1
  3817    3820    1
  3817    3822    1
  3817    5849    1
  3817    5851    1
  3818    3823    1
  3818    3824    1
  3818    5843    1
  3818    5845    1
  3818    5851    1
  3819    3821    1
  3819    3822    1
  3819    5844    1
  3819    5850    1
  3820    3825    1
  3820    5844    1
  3820    5850    1
  3821    3823    1
  3821    3824    1
  3821    5849    1
  3822    3825    1
  3822    5849    1
  3822    5850    1
  3826    3828    1
  3826    3829    1
  3828    3831    1
  3828    3832    1
  3828    3835    1
  3829    3833    1
  3829    3862    1
  3829    3864    1
  3830    3834    1
  3830    3835    1
  3830    3857    1
  3830    3863    1
  3831    3833    1
  3831    3862    1
  3832    3836    1
  3832    3837    1
  3832    3855    1
  3832    3858    1
  3832    3859    1
  3832    3864    1
  3833    3838    1
  3833    3839    1
  3833    3842    1
  3833    3856    1
  3833    3860    1
  3833    3861    1
  3833    3863    1
  3834    3836    1
  3834    3837    1
  3834    3855    1
  3834    3858    1
  3834    3859    1
  3834    3862    1
  3835    3840    1
  3835    3841    1
  3835    3855    1
  3835    3858    1
  3835    3860    1
  3835    3861    1
  3835    3864    1
  3836    3838    1
  3836    3839    1
  3836    3857    1
  3836    3859    1
  3836    3863    1
  3837    3842    1
  3837    3850    1
  3837    3856    1
  3837    3858    1
  3837    3863    1
  3838    3840    1
  3838    3841    1
  3838    3855    1
  3838    3857    1
  3838    3860    1
  3838    3861    1
  3838    3862    1
  3839    3843    1
  3839    3849    1
  3839    3851    1
  3839    3858    1
  3839    3860    1
  3839    3861    1
  3839    3862    1
  3840    3842    1
  3840    3850    1
  3840    3856    1
  3840    3857    1
  3840    3859    1
  3841    3844    1
  3841    3848    1
  3841    3852    1
  3841    3853    1
  3841    3854    1
  3841    3856    1
  3841    3857    1
  3841    3859    1
  3841    6300    1
  3842    3845    1
  3842    3846    1
  3842    3847    1
  3842    3849    1
  3842    3851    1
  3842    3858    1
  3842    3859    1
  3842    6302    1
  3843    3850    1
  3843    3856    1
  3843    3857    1
  3843    6300    1
  3843    6303    1
  3843    6304    1
  3844    3849    1
  3844    3855    1
  3844    6302    1
  3845    3848    1
  3846    3848    1
  3847    3848    1
  3848    3851    1
  3848    3855    1
  3848    6294    1
  3848    6298    1
  3848    6301    1
  3848    6305    1
  3848    6306    1
  3849    3852    1
  3849    3853    1
  3849    3854    1
  3849    6296    1
  3849    6299    1
  3849    6303    1
  3849    6304    1
  3849    6306    1
  3850    3855    1
  3850    6298    1
  3850    6301    1
  3850    6302    1
  3851    6300    1
  3855    3860    1
  3855    3861    1
  3856    3858    1
  3856    3859    1
  3857    3862    1
  3858    3860    1
  3858    3861    1
  3859    3862    1
  3865    3871    1
  3865    3872    1
  3865    3873    1
  3865    3875    1
  3865    3895    1
  3865    3897    1
  3865    3899    1
  3866    3870    1
  3866    3874    1
  3866    3898    1
  3867    3870    1
  3867    3874    1
  3867    3898    1
  3868    3870    1
  3868    3874    1
  3868    3898    1
  3869    3876    1
  3869    3894    1
  3869    3896    1
  3869    3900    1
  3869    3901    1
  3869    3932    1
  3870    3875    1
  3870    3895    1
  3870    3897    1
  3870    3899    1
  3871    3874    1
  3871    3898    1
  3872    3874    1
  3872    3898    1
  3873    3874    1
  3873    3898    1
  3874    3877    1
  3874    3878    1
  3874    3881    1
  3874    3899    1
  3874    3932    1
  3875    3879    1
  3875    3894    1
  3875    3896    1
  3875    3899    1
  3875    3931    1
  3875    3933    1
  3876    3880    1
  3876    3881    1
  3876    3889    1
  3876    3895    1
  3876    3898    1
  3876    3932    1
  3877    3879    1
  3877    3894    1
  3877    3897    1
  3878    3882    1
  3878    3883    1
  3878    3887    1
  3878    3890    1
  3878    3891    1
  3878    3896    1
  3878    3897    1
  3879    3884    1
  3879    3885    1
  3879    3888    1
  3879    3892    1
  3879    3893    1
  3879    3895    1
  3879    6332    1
  3880    3882    1
  3880    3883    1
  3880    3887    1
  3880    3890    1
  3880    3891    1
  3880    3894    1
  3881    3886    1
  3881    3887    1
  3881    3890    1
  3881    3892    1
  3881    3893    1
  3881    3896    1
  3881    6333    1
  3882    3884    1
  3882    3885    1
  3882    3889    1
  3882    3891    1
  3882    3895    1
  3883    3888    1
  3883    3890    1
  3883    3895    1
  3883    6332    1
  3883    6334    1
  3884    3886    1
  3884    3887    1
  3884    3889    1
  3884    3892    1
  3884    3893    1
  3884    3894    1
  3884    6333    1
  3885    3890    1
  3885    3892    1
  3885    3893    1
  3885    3894    1
  3885    6325    1
  3885    6327    1
  3885    6335    1
  3886    3888    1
  3886    3889    1
  3886    3891    1
  3886    6332    1
  3886    6334    1
  3887    3892    1
  3887    3893    1
  3887    6326    1
  3887    6328    1
  3887    6334    1
  3888    3890    1
  3888    3891    1
  3888    6327    1
  3888    6333    1
  3889    3894    1
  3889    6327    1
  3889    6333    1
  3890    3892    1
  3890    3893    1
  3890    6332    1
  3891    3894    1
  3891    6332    1
  3891    6333    1
  3895    3897    1
  3895    3898    1
  3897    3900    1
  3897    3901    1
  3897    3904    1
  3898    3902    1
  3898    3931    1
  3898    3933    1
  3899    3903    1
  3899    3904    1
  3899    3926    1
  3899    3932    1
  3900    3902    1
  3900    3931    1
  3901    3905    1
  3901    3906    1
  3901    3924    1
  3901    3927    1
  3901    3928    1
  3901    3933    1
  3902    3907    1
  3902    3908    1
  3902    3911    1
  3902    3925    1
  3902    3929    1
  3902    3930    1
  3902    3932    1
  3903    3905    1
  3903    3906    1
  3903    3924    1
  3903    3927    1
  3903    3928    1
  3903    3931    1
  3904    3909    1
  3904    3910    1
  3904    3924    1
  3904    3927    1
  3904    3929    1
  3904    3930    1
  3904    3933    1
  3905    3907    1
  3905    3908    1
  3905    3926    1
  3905    3928    1
  3905    3932    1
  3906    3911    1
  3906    3919    1
  3906    3925    1
  3906    3927    1
  3906    3932    1
  3907    3909    1
  3907    3910    1
  3907    3924    1
  3907    3926    1
  3907    3929    1
  3907    3930    1
  3907    3931    1
  3908    3912    1
  3908    3918    1
  3908    3920    1
  3908    3927    1
  3908    3929    1
  3908    3930    1
  3908    3931    1
  3909    3911    1
  3909    3919    1
  3909    3925    1
  3909    3926    1
  3909    3928    1
  3910    3913    1
  3910    3917    1
  3910    3921    1
  3910    3922    1
  3910    3923    1
  3910    3925    1
  3910    3926    1
  3910    3928    1
  3910    5612    1
  3911    3914    1
  3911    3915    1
  3911    3916    1
  3911    3918    1
  3911    3920    1
  3911    3927    1
  3911    3928    1
  3911    5610    1
  3912    3919    1
  3912    3925    1
  3912    3926    1
  3912    5608    1
  3912    5611    1
  3912    5612    1
  3913    3918    1
  3913    3924    1
  3913    5610    1
  3914    3917    1
  3915    3917    1
  3916    3917    1
  3917    3920    1
  3917    3924    1
  3917    5606    1
  3917    5609    1
  3917    5613    1
  3917    5614    1
  3917    5616    1
  3918    3921    1
  3918    3922    1
  3918    3923    1
  3918    5604    1
  3918    5608    1
  3918    5611    1
  3918    5615    1
  3918    5616    1
  3919    3924    1
  3919    5610    1
  3919    5613    1
  3919    5614    1
  3920    5612    1
  3924    3929    1
  3924    3930    1
  3925    3927    1
  3925    3928    1
  3926    3931    1
  3927    3929    1
  3927    3930    1
  3928    3931    1
  3934    3940    1
  3934    3941    1
  3934    3942    1
  3934    3944    1
  3934    3964    1
  3934    3966    1
  3934    3968    1
  3935    3939    1
  3935    3943    1
  3935    3967    1
  3936    3939    1
  3936    3943    1
  3936    3967    1
  3937    3939    1
  3937    3943    1
  3937    3967    1
  3938    3945    1
  3938    3963    1
  3938    3965    1
  3938    3969    1
  3938    3970    1
  3938    4001    1
  3939    3944    1
  3939    3964    1
  3939    3966    1
  3939    3968    1
  3940    3943    1
  3940    3967    1
  3941    3943    1
  3941    3967    1
  3942    3943    1
  3942    3967    1
  3943    3946    1
  3943    3947    1
  3943    3950    1
  3943    3968    1
  3943    4001    1
  3944    3948    1
  3944    3963    1
  3944    3965    1
  3944    3968    1
  3944    4000    1
  3944    4002    1
  3945    3949    1
  3945    3950    1
  3945    3958    1
  3945    3964    1
  3945    3967    1
  3945    4001    1
  3946    3948    1
  3946    3963    1
  3946    3966    1
  3947    3951    1
  3947    3952    1
  3947    3956    1
  3947    3959    1
  3947    3960    1
  3947    3965    1
  3947    3966    1
  3948    3953    1
  3948    3954    1
  3948    3957    1
  3948    3961    1
  3948    3962    1
  3948    3964    1
  3949    3951    1
  3949    3952    1
  3949    3956    1
  3949    3959    1
  3949    3960    1
  3949    3963    1
  3950    3955    1
  3950    3956    1
  3950    3959    1
  3950    3961    1
  3950    3962    1
  3950    3965    1
  3951    3953    1
  3951    3954    1
  3951    3958    1
  3951    3960    1
  3951    3964    1
  3952    3957    1
  3952    3959    1
  3952    3964    1
  3953    3955    1
  3953    3956    1
  3953    3958    1
  3953    3961    1
  3953    3962    1
  3953    3963    1
  3954    3959    1
  3954    3961    1
  3954    3962    1
  3954    3963    1
  3955    3957    1
  3955    3958    1
  3955    3960    1
  3956    3961    1
  3956    3962    1
  3957    3959    1
  3957    3960    1
  3958    3963    1
  3959    3961    1
  3959    3962    1
  3960    3963    1
  3964    3966    1
  3964    3967    1
  3966    3969    1
  3966    3970    1
  3966    3973    1
  3967    3971    1
  3967    4000    1
  3967    4002    1
  3968    3972    1
  3968    3973    1
  3968    3995    1
  3968    4001    1
  3969    3971    1
  3969    4000    1
  3970    3974    1
  3970    3975    1
  3970    3993    1
  3970    3996    1
  3970    3997    1
  3970    4002    1
  3971    3976    1
  3971    3977    1
  3971    3980    1
  3971    3994    1
  3971    3998    1
  3971    3999    1
  3971    4001    1
  3972    3974    1
  3972    3975    1
  3972    3993    1
  3972    3996    1
  3972    3997    1
  3972    4000    1
  3973    3978    1
  3973    3979    1
  3973    3993    1
  3973    3996    1
  3973    3998    1
  3973    3999    1
  3973    4002    1
  3974    3976    1
  3974    3977    1
  3974    3995    1
  3974    3997    1
  3974    4001    1
  3975    3980    1
  3975    3988    1
  3975    3994    1
  3975    3996    1
  3975    4001    1
  3976    3978    1
  3976    3979    1
  3976    3993    1
  3976    3995    1
  3976    3998    1
  3976    3999    1
  3976    4000    1
  3977    3981    1
  3977    3987    1
  3977    3989    1
  3977    3996    1
  3977    3998    1
  3977    3999    1
  3977    4000    1
  3978    3980    1
  3978    3988    1
  3978    3994    1
  3978    3995    1
  3978    3997    1
  3979    3982    1
  3979    3986    1
  3979    3990    1
  3979    3991    1
  3979    3992    1
  3979    3994    1
  3979    3995    1
  3979    3997    1
  3980    3983    1
  3980    3984    1
  3980    3985    1
  3980    3987    1
  3980    3989    1
  3980    3996    1
  3980    3997    1
  3981    3988    1
  3981    3994    1
  3981    3995    1
  3982    3987    1
  3982    3993    1
  3983    3986    1
  3984    3986    1
  3985    3986    1
  3986    3989    1
  3986    3993    1
  3987    3990    1
  3987    3991    1
  3987    3992    1
  3988    3993    1
  3993    3998    1
  3993    3999    1
  3994    3996    1
  3994    3997    1
  3995    4000    1
  3996    3998    1
  3996    3999    1
  3997    4000    1
  4003    4009    1
  4003    4010    1
  4003    4011    1
  4003    4013    1
  4003    4033    1
  4003    4035    1
  4003    4037    1
  4004    4008    1
  4004    4012    1
  4004    4036    1
  4005    4008    1
  4005    4012    1
  4005    4036    1
  4006    4008    1
  4006    4012    1
  4006    4036    1
  4007    4014    1
  4007    4032    1
  4007    4034    1
  4007    4038    1
  4007    4039    1
  4007    4070    1
  4008    4013    1
  4008    4033    1
  4008    4035    1
  4008    4037    1
  4009    4012    1
  4009    4036    1
  4010    4012    1
  4010    4036    1
  4011    4012    1
  4011    4036    1
  4012    4015    1
  4012    4016    1
  4012    4019    1
  4012    4037    1
  4012    4070    1
  4013    4017    1
  4013    4032    1
  4013    4034    1
  4013    4037    1
  4013    4069    1
  4013    4071    1
  4014    4018    1
  4014    4019    1
  4014    4027    1
  4014    4033    1
  4014    4036    1
  4014    4070    1
  4015    4017    1
  4015    4032    1
  4015    4035    1
  4016    4020    1
  4016    4021    1
  4016    4025    1
  4016    4028    1
  4016    4029    1
  4016    4034    1
  4016    4035    1
  4017    4022    1
  4017    4023    1
  4017    4026    1
  4017    4030    1
  4017    4031    1
  4017    4033    1
  4018    4020    1
  4018    4021    1
  4018    4025    1
  4018    4028    1
  4018    4029    1
  4018    4032    1
  4019    4024    1
  4019    4025    1
  4019    4028    1
  4019    4030    1
  4019    4031    1
  4019    4034    1
  4020    4022    1
  4020    4023    1
  4020    4027    1
  4020    4029    1
  4020    4033    1
  4021    4026    1
  4021    4028    1
  4021    4033    1
  4022    4024    1
  4022    4025    1
  4022    4027    1
  4022    4030    1
  4022    4031    1
  4022    4032    1
  4023    4028    1
  4023    4030    1
  4023    4031    1
  4023    4032    1
  4024    4026    1
  4024    4027    1
  4024    4029    1
  4025    4030    1
  4025    4031    1
  4026    4028    1
  4026    4029    1
  4027    4032    1
  4028    4030    1
  4028    4031    1
  4029    4032    1
  4033    4035    1
  4033    4036    1
  4035    4038    1
  4035    4039    1
  4035    4042    1
  4036    4040    1
  4036    4069    1
  4036    4071    1
  4037    4041    1
  4037    4042    1
  4037    4064    1
  4037    4070    1
  4038    4040    1
  4038    4069    1
  4039    4043    1
  4039    4044    1
  4039    4062    1
  4039    4065    1
  4039    4066    1
  4039    4071    1
  4040    4045    1
  4040    4046    1
  4040    4049    1
  4040    4063    1
  4040    4067    1
  4040    4068    1
  4040    4070    1
  4041    4043    1
  4041    4044    1
  4041    4062    1
  4041    4065    1
  4041    4066    1
  4041    4069    1
  4042    4047    1
  4042    4048    1
  4042    4062    1
  4042    4065    1
  4042    4067    1
  4042    4068    1
  4042    4071    1
  4043    4045    1
  4043    4046    1
  4043    4064    1
  4043    4066    1
  4043    4070    1
  4044    4049    1
  4044    4057    1
  4044    4063    1
  4044    4065    1
  4044    4070    1
  4045    4047    1
  4045    4048    1
  4045    4062    1
  4045    4064    1
  4045    4067    1
  4045    4068    1
  4045    4069    1
  4046    4050    1
  4046    4056    1
  4046    4058    1
  4046    4065    1
  4046    4067    1
  4046    4068    1
  4046    4069    1
  4047    4049    1
  4047    4057    1
  4047    4063    1
  4047    4064    1
  4047    4066    1
  4048    4051    1
  4048    4055    1
  4048    4059    1
  4048    4060    1
  4048    4061    1
  4048    4063    1
  4048    4064    1
  4048    4066    1
  4048    5886    1
  4049    4052    1
  4049    4053    1
  4049    4054    1
  4049    4056    1
  4049    4058    1
  4049    4065    1
  4049    4066    1
  4049    5888    1
  4050    4057    1
  4050    4063    1
  4050    4064    1
  4050    5886    1
  4050    5889    1
  4050    5890    1
  4051    4056    1
  4051    4062    1
  4051    5888    1
  4052    4055    1
  4053    4055    1
  4054    4055    1
  4055    4058    1
  4055    4062    1
  4055    5880    1
  4055    5884    1
  4055    5887    1
  4055    5891    1
  4055    5892    1
  4056    4059    1
  4056    4060    1
  4056    4061    1
  4056    5882    1
  4056    5885    1
  4056    5889    1
  4056    5890    1
  4056    5892    1
  4057    4062    1
  4057    5884    1
  4057    5887    1
  4057    5888    1
  4058    5886    1
  4062    4067    1
  4062    4068    1
  4063    4065    1
  4063    4066    1
  4064    4069    1
  4065    4067    1
  4065    4068    1
  4066    4069    1
  4072    4078    1
  4072    4079    1
  4072    4080    1
  4072    4082    1
  4072    4102    1
  4072    4104    1
  4072    4106    1
  4073    4077    1
  4073    4081    1
  4073    4105    1
  4074    4077    1
  4074    4081    1
  4074    4105    1
  4075    4077    1
  4075    4081    1
  4075    4105    1
  4076    4083    1
  4076    4101    1
  4076    4103    1
  4076    4107    1
  4076    4108    1
  4076    4139    1
  4077    4082    1
  4077    4102    1
  4077    4104    1
  4077    4106    1
  4078    4081    1
  4078    4105    1
  4079    4081    1
  4079    4105    1
  4080    4081    1
  4080    4105    1
  4081    4084    1
  4081    4085    1
  4081    4088    1
  4081    4106    1
  4081    4139    1
  4082    4086    1
  4082    4101    1
  4082    4103    1
  4082    4106    1
  4082    4138    1
  4082    4140    1
  4083    4087    1
  4083    4088    1
  4083    4096    1
  4083    4102    1
  4083    4105    1
  4083    4139    1
  4084    4086    1
  4084    4101    1
  4084    4104    1
  4085    4089    1
  4085    4090    1
  4085    4094    1
  4085    4097    1
  4085    4098    1
  4085    4103    1
  4085    4104    1
  4086    4091    1
  4086    4092    1
  4086    4095    1
  4086    4099    1
  4086    4100    1
  4086    4102    1
  4087    4089    1
  4087    4090    1
  4087    4094    1
  4087    4097    1
  4087    4098    1
  4087    4101    1
  4088    4093    1
  4088    4094    1
  4088    4097    1
  4088    4099    1
  4088    4100    1
  4088    4103    1
  4089    4091    1
  4089    4092    1
  4089    4096    1
  4089    4098    1
  4089    4102    1
  4090    4095    1
  4090    4097    1
  4090    4102    1
  4091    4093    1
  4091    4094    1
  4091    4096    1
  4091    4099    1
  4091    4100    1
  4091    4101    1
  4092    4097    1
  4092    4099    1
  4092    4100    1
  4092    4101    1
  4093    4095    1
  4093    4096    1
  4093    4098    1
  4094    4099    1
  4094    4100    1
  4095    4097    1
  4095    4098    1
  4096    4101    1
  4097    4099    1
  4097    4100    1
  4098    4101    1
  4102    4104    1
  4102    4105    1
  4104    4107    1
  4104    4108    1
  4104    4111    1
  4105    4109    1
  4105    4138    1
  4105    4140    1
  4106    4110    1
  4106    4111    1
  4106    4133    1
  4106    4139    1
  4107    4109    1
  4107    4138    1
  4108    4112    1
  4108    4113    1
  4108    4131    1
  4108    4134    1
  4108    4135    1
  4108    4140    1
  4109    4114    1
  4109    4115    1
  4109    4118    1
  4109    4132    1
  4109    4136    1
  4109    4137    1
  4109    4139    1
  4110    4112    1
  4110    4113    1
  4110    4131    1
  4110    4134    1
  4110    4135    1
  4110    4138    1
  4111    4116    1
  4111    4117    1
  4111    4131    1
  4111    4134    1
  4111    4136    1
  4111    4137    1
  4111    4140    1
  4112    4114    1
  4112    4115    1
  4112    4133    1
  4112    4135    1
  4112    4139    1
  4113    4118    1
  4113    4126    1
  4113    4132    1
  4113    4134    1
  4113    4139    1
  4114    4116    1
  4114    4117    1
  4114    4131    1
  4114    4133    1
  4114    4136    1
  4114    4137    1
  4114    4138    1
  4115    4119    1
  4115    4125    1
  4115    4127    1
  4115    4134    1
  4115    4136    1
  4115    4137    1
  4115    4138    1
  4116    4118    1
  4116    4126    1
  4116    4132    1
  4116    4133    1
  4116    4135    1
  4117    4120    1
  4117    4124    1
  4117    4128    1
  4117    4129    1
  4117    4130    1
  4117    4132    1
  4117    4133    1
  4117    4135    1
  4118    4121    1
  4118    4122    1
  4118    4123    1
  4118    4125    1
  4118    4127    1
  4118    4134    1
  4118    4135    1
  4119    4126    1
  4119    4132    1
  4119    4133    1
  4120    4125    1
  4120    4131    1
  4121    4124    1
  4122    4124    1
  4123    4124    1
  4124    4127    1
  4124    4131    1
  4125    4128    1
  4125    4129    1
  4125    4130    1
  4126    4131    1
  4131    4136    1
  4131    4137    1
  4132    4134    1
  4132    4135    1
  4133    4138    1
  4134    4136    1
  4134    4137    1
  4135    4138    1
  4141    4147    1
  4141    4148    1
  4141    4149    1
  4141    4151    1
  4141    4171    1
  4141    4173    1
  4141    4175    1
  4142    4146    1
  4142    4150    1
  4142    4174    1
  4143    4146    1
  4143    4150    1
  4143    4174    1
  4144    4146    1
  4144    4150    1
  4144    4174    1
  4145    4152    1
  4145    4170    1
  4145    4172    1
  4145    4176    1
  4145    4177    1
  4145    4208    1
  4146    4151    1
  4146    4171    1
  4146    4173    1
  4146    4175    1
  4147    4150    1
  4147    4174    1
  4148    4150    1
  4148    4174    1
  4149    4150    1
  4149    4174    1
  4150    4153    1
  4150    4154    1
  4150    4157    1
  4150    4175    1
  4150    4208    1
  4151    4155    1
  4151    4170    1
  4151    4172    1
  4151    4175    1
  4151    4207    1
  4151    4209    1
  4152    4156    1
  4152    4157    1
  4152    4165    1
  4152    4171    1
  4152    4174    1
  4152    4208    1
  4153    4155    1
  4153    4170    1
  4153    4173    1
  4154    4158    1
  4154    4159    1
  4154    4163    1
  4154    4166    1
  4154    4167    1
  4154    4172    1
  4154    4173    1
  4155    4160    1
  4155    4161    1
  4155    4164    1
  4155    4168    1
  4155    4169    1
  4155    4171    1
  4156    4158    1
  4156    4159    1
  4156    4163    1
  4156    4166    1
  4156    4167    1
  4156    4170    1
  4157    4162    1
  4157    4163    1
  4157    4166    1
  4157    4168    1
  4157    4169    1
  4157    4172    1
  4158    4160    1
  4158    4161    1
  4158    4165    1
  4158    4167    1
  4158    4171    1
  4159    4164    1
  4159    4166    1
  4159    4171    1
  4160    4162    1
  4160    4163    1
  4160    4165    1
  4160    4168    1
  4160    4169    1
  4160    4170    1
  4161    4166    1
  4161    4168    1
  4161    4169    1
  4161    4170    1
  4162    4164    1
  4162    4165    1
  4162    4167    1
  4163    4168    1
  4163    4169    1
  4164    4166    1
  4164    4167    1
  4165    4170    1
  4166    4168    1
  4166    4169    1
  4167    4170    1
  4171    4173    1
  4171    4174    1
  4173    4176    1
  4173    4177    1
  4173    4180    1
  4174    4178    1
  4174    4207    1
  4174    4209    1
  4175    4179    1
  4175    4180    1
  4175    4202    1
  4175    4208    1
  4176    4178    1
  4176    4207    1
  4177    4181    1
  4177    4182    1
  4177    4200    1
  4177    4203    1
  4177    4204    1
  4177    4209    1
  4178    4183    1
  4178    4184    1
  4178    4187    1
  4178    4201    1
  4178    4205    1
  4178    4206    1
  4178    4208    1
  4179    4181    1
  4179    4182    1
  4179    4200    1
  4179    4203    1
  4179    4204    1
  4179    4207    1
  4180    4185    1
  4180    4186    1
  4180    4200    1
  4180    4203    1
  4180    4205    1
  4180    4206    1
  4180    4209    1
  4181    4183    1
  4181    4184    1
  4181    4202    1
  4181    4204    1
  4181    4208    1
  4182    4187    1
  4182    4195    1
  4182    4201    1
  4182    4203    1
  4182    4208    1
  4183    4185    1
  4183    4186    1
  4183    4200    1
  4183    4202    1
  4183    4205    1
  4183    4206    1
  4183    4207    1
  4184    4188    1
  4184    4194    1
  4184    4196    1
  4184    4203    1
  4184    4205    1
  4184    4206    1
  4184    4207    1
  4185    4187    1
  4185    4195    1
  4185    4201    1
  4185    4202    1
  4185    4204    1
  4186    4189    1
  4186    4193    1
  4186    4197    1
  4186    4198    1
  4186    4199    1
  4186    4201    1
  4186    4202    1
  4186    4204    1
  4187    4190    1
  4187    4191    1
  4187    4192    1
  4187    4194    1
  4187    4196    1
  4187    4203    1
  4187    4204    1
  4188    4195    1
  4188    4201    1
  4188    4202    1
  4189    4194    1
  4189    4200    1
  4190    4193    1
  4191    4193    1
  4192    4193    1
  4193    4196    1
  4193    4200    1
  4194    4197    1
  4194    4198    1
  4194    4199    1
  4195    4200    1
  4200    4205    1
  4200    4206    1
  4201    4203    1
  4201    4204    1
  4202    4207    1
  4203    4205    1
  4203    4206    1
  4204    4207    1
  4210    4216    1
  4210    4217    1
  4210    4218    1
  4210    4220    1
  4210    4240    1
  4210    4242    1
  4210    4244    1
  4211    4215    1
  4211    4219    1
  4211    4243    1
  4212    4215    1
  4212    4219    1
  4212    4243    1
  4213    4215    1
  4213    4219    1
  4213    4243    1
  4214    4221    1
  4214    4239    1
  4214    4241    1
  4214    4245    1
  4214    4246    1
  4214    4277    1
  4215    4220    1
  4215    4240    1
  4215    4242    1
  4215    4244    1
  4216    4219    1
  4216    4243    1
  4217    4219    1
  4217    4243    1
  4218    4219    1
  4218    4243    1
  4219    4222    1
  4219    4223    1
  4219    4226    1
  4219    4244    1
  4219    4277    1
  4220    4224    1
  4220    4239    1
  4220    4241    1
  4220    4244    1
  4220    4276    1
  4220    4278    1
  4221    4225    1
  4221    4226    1
  4221    4234    1
  4221    4240    1
  4221    4243    1
  4221    4277    1
  4222    4224    1
  4222    4239    1
  4222    4242    1
  4223    4227    1
  4223    4228    1
  4223    4232    1
  4223    4235    1
  4223    4236    1
  4223    4241    1
  4223    4242    1
  4224    4229    1
  4224    4230    1
  4224    4233    1
  4224    4237    1
  4224    4238    1
  4224    4240    1
  4225    4227    1
  4225    4228    1
  4225    4232    1
  4225    4235    1
  4225    4236    1
  4225    4239    1
  4226    4231    1
  4226    4232    1
  4226    4235    1
  4226    4237    1
  4226    4238    1
  4226    4241    1
  4227    4229    1
  4227    4230    1
  4227    4234    1
  4227    4236    1
  4227    4240    1
  4228    4233    1
  4228    4235    1
  4228    4240    1
  4229    4231    1
  4229    4232    1
  4229    4234    1
  4229    4237    1
  4229    4238    1
  4229    4239    1
  4230    4235    1
  4230    4237    1
  4230    4238    1
  4230    4239    1
  4231    4233    1
  4231    4234    1
  4231    4236    1
  4232    4237    1
  4232    4238    1
  4233    4235    1
  4233    4236    1
  4234    4239    1
  4235    4237    1
  4235    4238    1
  4236    4239    1
  4240    4242    1
  4240    4243    1
  4242    4245    1
  4242    4246    1
  4242    4249    1
  4243    4247    1
  4243    4276    1
  4243    4278    1
  4244    4248    1
  4244    4249    1
  4244    4271    1
  4244    4277    1
  4245    4247    1
  4245    4276    1
  4246    4250    1
  4246    4251    1
  4246    4269    1
  4246    4272    1
  4246    4273    1
  4246    4278    1
  4247    4252    1
  4247    4253    1
  4247    4256    1
  4247    4270    1
  4247    4274    1
  4247    4275    1
  4247    4277    1
  4248    4250    1
  4248    4251    1
  4248    4269    1
  4248    4272    1
  4248    4273    1
  4248    4276    1
  4249    4254    1
  4249    4255    1
  4249    4269    1
  4249    4272    1
  4249    4274    1
  4249    4275    1
  4249    4278    1
  4250    4252    1
  4250    4253    1
  4250    4271    1
  4250    4273    1
  4250    4277    1
  4251    4256    1
  4251    4264    1
  4251    4270    1
  4251    4272    1
  4251    4277    1
  4252    4254    1
  4252    4255    1
  4252    4269    1
  4252    4271    1
  4252    4274    1
  4252    4275    1
  4252    4276    1
  4253    4257    1
  4253    4263    1
  4253    4265    1
  4253    4272    1
  4253    4274    1
  4253    4275    1
  4253    4276    1
  4254    4256    1
  4254    4264    1
  4254    4270    1
  4254    4271    1
  4254    4273    1
  4255    4258    1
  4255    4262    1
  4255    4266    1
  4255    4267    1
  4255    4268    1
  4255    4270    1
  4255    4271    1
  4255    4273    1
  4256    4259    1
  4256    4260    1
  4256    4261    1
  4256    4263    1
  4256    4265    1
  4256    4272    1
  4256    4273    1
  4257    4264    1
  4257    4270    1
  4257    4271    1
  4258    4263    1
  4258    4269    1
  4259    4262    1
  4260    4262    1
  4261    4262    1
  4262    4265    1
  4262    4269    1
  4263    4266    1
  4263    4267    1
  4263    4268    1
  4264    4269    1
  4269    4274    1
  4269    4275    1
  4270    4272    1
  4270    4273    1
  4271    4276    1
  4272    4274    1
  4272    4275    1
  4273    4276    1
  4279    4285    1
  4279    4286    1
  4279    4287    1
  4279    4289    1
  4279    4309    1
  4279    4311    1
  4279    4313    1
  4280    4284    1
  4280    4288    1
  4280    4312    1
  4281    4284    1
  4281    4288    1
  4281    4312    1
  4282    4284    1
  4282    4288    1
  4282    4312    1
  4283    4290    1
  4283    4308    1
  4283    4310    1
  4283    4314    1
  4283    4315    1
  4283    4346    1
  4284    4289    1
  4284    4309    1
  4284    4311    1
  4284    4313    1
  4285    4288    1
  4285    4312    1
  4286    4288    1
  4286    4312    1
  4287    4288    1
  4287    4312    1
  4288    4291    1
  4288    4292    1
  4288    4295    1
  4288    4313    1
  4288    4346    1
  4289    4293    1
  4289    4308    1
  4289    4310    1
  4289    4313    1
  4289    4345    1
  4289    4347    1
  4290    4294    1
  4290    4295    1
  4290    4303    1
  4290    4309    1
  4290    4312    1
  4290    4346    1
  4291    4293    1
  4291    4308    1
  4291    4311    1
  4292    4296    1
  4292    4297    1
  4292    4301    1
  4292    4304    1
  4292    4305    1
  4292    4310    1
  4292    4311    1
  4293    4298    1
  4293    4299    1
  4293    4302    1
  4293    4306    1
  4293    4307    1
  4293    4309    1
  4294    4296    1
  4294    4297    1
  4294    4301    1
  4294    4304    1
  4294    4305    1
  4294    4308    1
  4295    4300    1
  4295    4301    1
  4295    4304    1
  4295    4306    1
  4295    4307    1
  4295    4310    1
  4296    4298    1
  4296    4299    1
  4296    4303    1
  4296    4305    1
  4296    4309    1
  4297    4302    1
  4297    4304    1
  4297    4309    1
  4298    4300    1
  4298    4301    1
  4298    4303    1
  4298    4306    1
  4298    4307    1
  4298    4308    1
  4299    4304    1
  4299    4306    1
  4299    4307    1
  4299    4308    1
  4300    4302    1
  4300    4303    1
  4300    4305    1
  4301    4306    1
  4301    4307    1
  4302    4304    1
  4302    4305    1
  4303    4308    1
  4304    4306    1
  4304    4307    1
  4305    4308    1
  4309    4311    1
  4309    4312    1
  4311    4314    1
  4311    4315    1
  4311    4318    1
  4312    4316    1
  4312    4345    1
  4312    4347    1
  4313    4317    1
  4313    4318    1
  4313    4340    1
  4313    4346    1
  4314    4316    1
  4314    4345    1
  4315    4319    1
  4315    4320    1
  4315    4338    1
  4315    4341    1
  4315    4342    1
  4315    4347    1
  4316    4321    1
  4316    4322    1
  4316    4325    1
  4316    4339    1
  4316    4343    1
  4316    4344    1
  4316    4346    1
  4317    4319    1
  4317    4320    1
  4317    4338    1
  4317    4341    1
  4317    4342    1
  4317    4345    1
  4318    4323    1
  4318    4324    1
  4318    4338    1
  4318    4341    1
  4318    4343    1
  4318    4344    1
  4318    4347    1
  4319    4321    1
  4319    4322    1
  4319    4340    1
  4319    4342    1
  4319    4346    1
  4320    4325    1
  4320    4333    1
  4320    4339    1
  4320    4341    1
  4320    4346    1
  4321    4323    1
  4321    4324    1
  4321    4338    1
  4321    4340    1
  4321    4343    1
  4321    4344    1
  4321    4345    1
  4322    4326    1
  4322    4332    1
  4322    4334    1
  4322    4341    1
  4322    4343    1
  4322    4344    1
  4322    4345    1
  4323    4325    1
  4323    4333    1
  4323    4339    1
  4323    4340    1
  4323    4342    1
  4324    4327    1
  4324    4331    1
  4324    4335    1
  4324    4336    1
  4324    4337    1
  4324    4339    1
  4324    4340    1
  4324    4342    1
  4324    4991    1
  4325    4328    1
  4325    4329    1
  4325    4330    1
  4325    4332    1
  4325    4334    1
  4325    4341    1
  4325    4342    1
  4325    4989    1
  4326    4333    1
  4326    4339    1
  4326    4340    1
  4326    4987    1
  4326    4990    1
  4326    4991    1
  4327    4332    1
  4327    4338    1
  4327    4989    1
  4328    4331    1
  4329    4331    1
  4330    4331    1
  4331    4334    1
  4331    4338    1
  4331    4985    1
  4331    4988    1
  4331    4992    1
  4331    4993    1
  4331    4995    1
  4332    4335    1
  4332    4336    1
  4332    4337    1
  4332    4983    1
  4332    4987    1
  4332    4990    1
  4332    4994    1
  4332    4995    1
  4333    4338    1
  4333    4989    1
  4333    4992    1
  4333    4993    1
  4334    4991    1
  4338    4343    1
  4338    4344    1
  4339    4341    1
  4339    4342    1
  4340    4345    1
  4341    4343    1
  4341    4344    1
  4342    4345    1
  4348    4354    1
  4348    4355    1
  4348    4356    1
  4348    4358    1
  4348    4378    1
  4348    4380    1
  4348    4382    1
  4349    4353    1
  4349    4357    1
  4349    4381    1
  4350    4353    1
  4350    4357    1
  4350    4381    1
  4351    4353    1
  4351    4357    1
  4351    4381    1
  4352    4359    1
  4352    4377    1
  4352    4379    1
  4352    4383    1
  4352    4384    1
  4352    4415    1
  4353    4358    1
  4353    4378    1
  4353    4380    1
  4353    4382    1
  4354    4357    1
  4354    4381    1
  4355    4357    1
  4355    4381    1
  4356    4357    1
  4356    4381    1
  4357    4360    1
  4357    4361    1
  4357    4364    1
  4357    4382    1
  4357    4415    1
  4358    4362    1
  4358    4377    1
  4358    4379    1
  4358    4382    1
  4358    4414    1
  4358    4416    1
  4359    4363    1
  4359    4364    1
  4359    4372    1
  4359    4378    1
  4359    4381    1
  4359    4415    1
  4360    4362    1
  4360    4377    1
  4360    4380    1
  4361    4365    1
  4361    4366    1
  4361    4370    1
  4361    4373    1
  4361    4374    1
  4361    4379    1
  4361    4380    1
  4362    4367    1
  4362    4368    1
  4362    4371    1
  4362    4375    1
  4362    4376    1
  4362    4378    1
  4363    4365    1
  4363    4366    1
  4363    4370    1
  4363    4373    1
  4363    4374    1
  4363    4377    1
  4364    4369    1
  4364    4370    1
  4364    4373    1
  4364    4375    1
  4364    4376    1
  4364    4379    1
  4365    4367    1
  4365    4368    1
  4365    4372    1
  4365    4374    1
  4365    4378    1
  4366    4371    1
  4366    4373    1
  4366    4378    1
  4367    4369    1
  4367    4370    1
  4367    4372    1
  4367    4375    1
  4367    4376    1
  4367    4377    1
  4368    4373    1
  4368    4375    1
  4368    4376    1
  4368    4377    1
  4369    4371    1
  4369    4372    1
  4369    4374    1
  4370    4375    1
  4370    4376    1
  4371    4373    1
  4371    4374    1
  4372    4377    1
  4373    4375    1
  4373    4376    1
  4374    4377    1
  4378    4380    1
  4378    4381    1
  4380    4383    1
  4380    4384    1
  4380    4387    1
  4381    4385    1
  4381    4414    1
  4381    4416    1
  4382    4386    1
  4382    4387    1
  4382    4409    1
  4382    4415    1
  4383    4385    1
  4383    4414    1
  4384    4388    1
  4384    4389    1
  4384    4407    1
  4384    4410    1
  4384    4411    1
  4384    4416    1
  4385    4390    1
  4385    4391    1
  4385    4394    1
  4385    4408    1
  4385    4412    1
  4385    4413    1
  4385    4415    1
  4386    4388    1
  4386    4389    1
  4386    4407    1
  4386    4410    1
  4386    4411    1
  4386    4414    1
  4387    4392    1
  4387    4393    1
  4387    4407    1
  4387    4410    1
  4387    4412    1
  4387    4413    1
  4387    4416    1
  4388    4390    1
  4388    4391    1
  4388    4409    1
  4388    4411    1
  4388    4415    1
  4389    4394    1
  4389    4402    1
  4389    4408    1
  4389    4410    1
  4389    4415    1
  4390    4392    1
  4390    4393    1
  4390    4407    1
  4390    4409    1
  4390    4412    1
  4390    4413    1
  4390    4414    1
  4391    4395    1
  4391    4401    1
  4391    4403    1
  4391    4410    1
  4391    4412    1
  4391    4413    1
  4391    4414    1
  4392    4394    1
  4392    4402    1
  4392    4408    1
  4392    4409    1
  4392    4411    1
  4393    4396    1
  4393    4400    1
  4393    4404    1
  4393    4405    1
  4393    4406    1
  4393    4408    1
  4393    4409    1
  4393    4411    1
  4393    6095    1
  4394    4397    1
  4394    4398    1
  4394    4399    1
  4394    4401    1
  4394    4403    1
  4394    4410    1
  4394    4411    1
  4394    6093    1
  4395    4402    1
  4395    4408    1
  4395    4409    1
  4395    6091    1
  4395    6094    1
  4395    6095    1
  4396    4401    1
  4396    4407    1
  4396    6093    1
  4397    4400    1
  4398    4400    1
  4399    4400    1
  4400    4403    1
  4400    4407    1
  4400    6089    1
  4400    6092    1
  4400    6096    1
  4400    6097    1
  4400    6099    1
  4401    4404    1
  4401    4405    1
  4401    4406    1
  4401    6087    1
  4401    6091    1
  4401    6094    1
  4401    6098    1
  4401    6099    1
  4402    4407    1
  4402    6093    1
  4402    6096    1
  4402    6097    1
  4403    6095    1
  4407    4412    1
  4407    4413    1
  4408    4410    1
  4408    4411    1
  4409    4414    1
  4410    4412    1
  4410    4413    1
  4411    4414    1
  4417    4423    1
  4417    4424    1
  4417    4425    1
  4417    4427    1
  4417    4447    1
  4417    4449    1
  4417    4451    1
  4418    4422    1
  4418    4426    1
  4418    4450    1
  4419    4422    1
  4419    4426    1
  4419    4450    1
  4420    4422    1
  4420    4426    1
  4420    4450    1
  4421    4428    1
  4421    4446    1
  4421    4448    1
  4421    4452    1
  4421    4453    1
  4421    4484    1
  4422    4427    1
  4422    4447    1
  4422    4449    1
  4422    4451    1
  4423    4426    1
  4423    4450    1
  4424    4426    1
  4424    4450    1
  4425    4426    1
  4425    4450    1
  4426    4429    1
  4426    4430    1
  4426    4433    1
  4426    4451    1
  4426    4484    1
  4427    4431    1
  4427    4446    1
  4427    4448    1
  4427    4451    1
  4427    4483    1
  4427    4485    1
  4428    4432    1
  4428    4433    1
  4428    4441    1
  4428    4447    1
  4428    4450    1
  4428    4484    1
  4429    4431    1
  4429    4446    1
  4429    4449    1
  4430    4434    1
  4430    4435    1
  4430    4439    1
  4430    4442    1
  4430    4443    1
  4430    4448    1
  4430    4449    1
  4431    4436    1
  4431    4437    1
  4431    4440    1
  4431    4444    1
  4431    4445    1
  4431    4447    1
  4431    5988    1
  4432    4434    1
  4432    4435    1
  4432    4439    1
  4432    4442    1
  4432    4443    1
  4432    4446    1
  4433    4438    1
  4433    4439    1
  4433    4442    1
  4433    4444    1
  4433    4445    1
  4433    4448    1
  4433    5987    1
  4434    4436    1
  4434    4437    1
  4434    4441    1
  4434    4443    1
  4434    4447    1
  4435    4440    1
  4435    4442    1
  4435    4447    1
  4435    5982    1
  4435    5988    1
  4436    4438    1
  4436    4439    1
  4436    4441    1
  4436    4444    1
  4436    4445    1
  4436    4446    1
  4436    5987    1
  4437    4442    1
  4437    4444    1
  4437    4445    1
  4437    4446    1
  4437    5981    1
  4437    5983    1
  4437    5989    1
  4438    4440    1
  4438    4441    1
  4438    4443    1
  4438    5982    1
  4438    5988    1
  4439    4444    1
  4439    4445    1
  4439    5980    1
  4439    5982    1
  4439    5990    1
  4440    4442    1
  4440    4443    1
  4440    5987    1
  4440    5989    1
  4441    4446    1
  4441    5987    1
  4441    5989    1
  4442    4444    1
  4442    4445    1
  4442    5988    1
  4443    4446    1
  4443    5987    1
  4443    5988    1
  4447    4449    1
  4447    4450    1
  4449    4452    1
  4449    4453    1
  4449    4456    1
  4450    4454    1
  4450    4483    1
  4450    4485    1
  4451    4455    1
  4451    4456    1
  4451    4478    1
  4451    4484    1
  4452    4454    1
  4452    4483    1
  4453    4457    1
  4453    4458    1
  4453    4476    1
  4453    4479    1
  4453    4480    1
  4453    4485    1
  4454    4459    1
  4454    4460    1
  4454    4463    1
  4454    4477    1
  4454    4481    1
  4454    4482    1
  4454    4484    1
  4455    4457    1
  4455    4458    1
  4455    4476    1
  4455    4479    1
  4455    4480    1
  4455    4483    1
  4456    4461    1
  4456    4462    1
  4456    4476    1
  4456    4479    1
  4456    4481    1
  4456    4482    1
  4456    4485    1
  4457    4459    1
  4457    4460    1
  4457    4478    1
  4457    4480    1
  4457    4484    1
  4458    4463    1
  4458    4471    1
  4458    4477    1
  4458    4479    1
  4458    4484    1
  4459    4461    1
  4459    4462    1
  4459    4476    1
  4459    4478    1
  4459    4481    1
  4459    4482    1
  4459    4483    1
  4460    4464    1
  4460    4470    1
  4460    4472    1
  4460    4479    1
  4460    4481    1
  4460    4482    1
  4460    4483    1
  4461    4463    1
  4461    4471    1
  4461    4477    1
  4461    4478    1
  4461    4480    1
  4462    4465    1
  4462    4469    1
  4462    4473    1
  4462    4474    1
  4462    4475    1
  4462    4477    1
  4462    4478    1
  4462    4480    1
  4462    5403    1
  4463    4466    1
  4463    4467    1
  4463    4468    1
  4463    4470    1
  4463    4472    1
  4463    4479    1
  4463    4480    1
  4463    5405    1
  4464    4471    1
  4464    4477    1
  4464    4478    1
  4464    5403    1
  4464    5406    1
  4464    5407    1
  4465    4470    1
  4465    4476    1
  4465    5405    1
  4466    4469    1
  4467    4469    1
  4468    4469    1
  4469    4472    1
  4469    4476    1
  4469    5397    1
  4469    5401    1
  4469    5404    1
  4469    5408    1
  4469    5409    1
  4470    4473    1
  4470    4474    1
  4470    4475    1
  4470    5399    1
  4470    5402    1
  4470    5406    1
  4470    5407    1
  4470    5409    1
  4471    4476    1
  4471    5401    1
  4471    5404    1
  4471    5405    1
  4472    5403    1
  4476    4481    1
  4476    4482    1
  4477    4479    1
  4477    4480    1
  4478    4483    1
  4479    4481    1
  4479    4482    1
  4480    4483    1
  4486    4492    1
  4486    4493    1
  4486    4494    1
  4486    4496    1
  4486    4516    1
  4486    4518    1
  4486    4520    1
  4487    4491    1
  4487    4495    1
  4487    4519    1
  4488    4491    1
  4488    4495    1
  4488    4519    1
  4489    4491    1
  4489    4495    1
  4489    4519    1
  4490    4497    1
  4490    4515    1
  4490    4517    1
  4490    4521    1
  4490    4522    1
  4490    4553    1
  4491    4496    1
  4491    4516    1
  4491    4518    1
  4491    4520    1
  4492    4495    1
  4492    4519    1
  4493    4495    1
  4493    4519    1
  4494    4495    1
  4494    4519    1
  4495    4498    1
  4495    4499    1
  4495    4502    1
  4495    4520    1
  4495    4553    1
  4496    4500    1
  4496    4515    1
  4496    4517    1
  4496    4520    1
  4496    4552    1
  4496    4554    1
  4497    4501    1
  4497    4502    1
  4497    4510    1
  4497    4516    1
  4497    4519    1
  4497    4553    1
  4498    4500    1
  4498    4515    1
  4498    4518    1
  4499    4503    1
  4499    4504    1
  4499    4508    1
  4499    4511    1
  4499    4512    1
  4499    4517    1
  4499    4518    1
  4500    4505    1
  4500    4506    1
  4500    4509    1
  4500    4513    1
  4500    4514    1
  4500    4516    1
  4500    6402    1
  4501    4503    1
  4501    4504    1
  4501    4508    1
  4501    4511    1
  4501    4512    1
  4501    4515    1
  4502    4507    1
  4502    4508    1
  4502    4511    1
  4502    4513    1
  4502    4514    1
  4502    4517    1
  4502    6401    1
  4503    4505    1
  4503    4506    1
  4503    4510    1
  4503    4512    1
  4503    4516    1
  4504    4509    1
  4504    4511    1
  4504    4516    1
  4504    6396    1
  4504    6402    1
  4505    4507    1
  4505    4508    1
  4505    4510    1
  4505    4513    1
  4505    4514    1
  4505    4515    1
  4505    6401    1
  4506    4511    1
  4506    4513    1
  4506    4514    1
  4506    4515    1
  4506    6395    1
  4506    6397    1
  4506    6403    1
  4507    4509    1
  4507    4510    1
  4507    4512    1
  4507    6396    1
  4507    6402    1
  4508    4513    1
  4508    4514    1
  4508    6394    1
  4508    6396    1
  4508    6404    1
  4509    4511    1
  4509    4512    1
  4509    6401    1
  4509    6403    1
  4510    4515    1
  4510    6401    1
  4510    6403    1
  4511    4513    1
  4511    4514    1
  4511    6402    1
  4512    4515    1
  4512    6401    1
  4512    6402    1
  4516    4518    1
  4516    4519    1
  4518    4521    1
  4518    4522    1
  4518    4525    1
  4519    4523    1
  4519    4552    1
  4519    4554    1
  4520    4524    1
  4520    4525    1
  4520    4547    1
  4520    4553    1
  4521    4523    1
  4521    4552    1
  4522    4526    1
  4522    4527    1
  4522    4545    1
  4522    4548    1
  4522    4549    1
  4522    4554    1
  4523    4528    1
  4523    4529    1
  4523    4532    1
  4523    4546    1
  4523    4550    1
  4523    4551    1
  4523    4553    1
  4524    4526    1
  4524    4527    1
  4524    4545    1
  4524    4548    1
  4524    4549    1
  4524    4552    1
  4525    4530    1
  4525    4531    1
  4525    4545    1
  4525    4548    1
  4525    4550    1
  4525    4551    1
  4525    4554    1
  4526    4528    1
  4526    4529    1
  4526    4547    1
  4526    4549    1
  4526    4553    1
  4527    4532    1
  4527    4540    1
  4527    4546    1
  4527    4548    1
  4527    4553    1
  4528    4530    1
  4528    4531    1
  4528    4545    1
  4528    4547    1
  4528    4550    1
  4528    4551    1
  4528    4552    1
  4529    4533    1
  4529    4539    1
  4529    4541    1
  4529    4548    1
  4529    4550    1
  4529    4551    1
  4529    4552    1
  4530    4532    1
  4530    4540    1
  4530    4546    1
  4530    4547    1
  4530    4549    1
  4531    4534    1
  4531    4538    1
  4531    4542    1
  4531    4543    1
  4531    4544    1
  4531    4546    1
  4531    4547    1
  4531    4549    1
  4532    4535    1
  4532    4536    1
  4532    4537    1
  4532    4539    1
  4532    4541    1
  4532    4548    1
  4532    4549    1
  4533    4540    1
  4533    4546    1
  4533    4547    1
  4534    4539    1
  4534    4545    1
  4535    4538    1
  4536    4538    1
  4537    4538    1
  4538    4541    1
  4538    4545    1
  4539    4542    1
  4539    4543    1
  4539    4544    1
  4540    4545    1
  4545    4550    1
  4545    4551    1
  4546    4548    1
  4546    4549    1
  4547    4552    1
  4548    4550    1
  4548    4551    1
  4549    4552    1
  4555    4561    1
  4555    4562    1
  4555    4563    1
  4555    4565    1
  4555    4585    1
  4555    4587    1
  4555    4589    1
  4556    4560    1
  4556    4564    1
  4556    4588    1
  4557    4560    1
  4557    4564    1
  4557    4588    1
  4558    4560    1
  4558    4564    1
  4558    4588    1
  4559    4566    1
  4559    4584    1
  4559    4586    1
  4559    4590    1
  4559    4591    1
  4559    4622    1
  4560    4565    1
  4560    4585    1
  4560    4587    1
  4560    4589    1
  4561    4564    1
  4561    4588    1
  4562    4564    1
  4562    4588    1
  4563    4564    1
  4563    4588    1
  4564    4567    1
  4564    4568    1
  4564    4571    1
  4564    4589    1
  4564    4622    1
  4565    4569    1
  4565    4584    1
  4565    4586    1
  4565    4589    1
  4565    4621    1
  4565    4623    1
  4566    4570    1
  4566    4571    1
  4566    4579    1
  4566    4585    1
  4566    4588    1
  4566    4622    1
  4567    4569    1
  4567    4584    1
  4567    4587    1
  4568    4572    1
  4568    4573    1
  4568    4577    1
  4568    4580    1
  4568    4581    1
  4568    4586    1
  4568    4587    1
  4569    4574    1
  4569    4575    1
  4569    4578    1
  4569    4582    1
  4569    4583    1
  4569    4585    1
  4569    4952    1
  4570    4572    1
  4570    4573    1
  4570    4577    1
  4570    4580    1
  4570    4581    1
  4570    4584    1
  4571    4576    1
  4571    4577    1
  4571    4580    1
  4571    4582    1
  4571    4583    1
  4571    4586    1
  4571    4953    1
  4572    4574    1
  4572    4575    1
  4572    4579    1
  4572    4581    1
  4572    4585    1
  4573    4578    1
  4573    4580    1
  4573    4585    1
  4573    4952    1
  4573    4954    1
  4574    4576    1
  4574    4577    1
  4574    4579    1
  4574    4582    1
  4574    4583    1
  4574    4584    1
  4574    4953    1
  4575    4580    1
  4575    4582    1
  4575    4583    1
  4575    4584    1
  4575    4945    1
  4575    4947    1
  4575    4955    1
  4576    4578    1
  4576    4579    1
  4576    4581    1
  4576    4952    1
  4576    4954    1
  4577    4582    1
  4577    4583    1
  4577    4946    1
  4577    4948    1
  4577    4954    1
  4578    4580    1
  4578    4581    1
  4578    4947    1
  4578    4953    1
  4579    4584    1
  4579    4947    1
  4579    4953    1
  4580    4582    1
  4580    4583    1
  4580    4952    1
  4581    4584    1
  4581    4952    1
  4581    4953    1
  4585    4587    1
  4585    4588    1
  4587    4590    1
  4587    4591    1
  4587    4594    1
  4588    4592    1
  4588    4621    1
  4588    4623    1
  4589    4593    1
  4589    4594    1
  4589    4616    1
  4589    4622    1
  4590    4592    1
  4590    4621    1
  4591    4595    1
  4591    4596    1
  4591    4614    1
  4591    4617    1
  4591    4618    1
  4591    4623    1
  4592    4597    1
  4592    4598    1
  4592    4601    1
  4592    4615    1
  4592    4619    1
  4592    4620    1
  4592    4622    1
  4593    4595    1
  4593    4596    1
  4593    4614    1
  4593    4617    1
  4593    4618    1
  4593    4621    1
  4594    4599    1
  4594    4600    1
  4594    4614    1
  4594    4617    1
  4594    4619    1
  4594    4620    1
  4594    4623    1
  4595    4597    1
  4595    4598    1
  4595    4616    1
  4595    4618    1
  4595    4622    1
  4596    4601    1
  4596    4609    1
  4596    4615    1
  4596    4617    1
  4596    4622    1
  4597    4599    1
  4597    4600    1
  4597    4614    1
  4597    4616    1
  4597    4619    1
  4597    4620    1
  4597    4621    1
  4598    4602    1
  4598    4608    1
  4598    4610    1
  4598    4617    1
  4598    4619    1
  4598    4620    1
  4598    4621    1
  4599    4601    1
  4599    4609    1
  4599    4615    1
  4599    4616    1
  4599    4618    1
  4600    4603    1
  4600    4607    1
  4600    4611    1
  4600    4612    1
  4600    4613    1
  4600    4615    1
  4600    4616    1
  4600    4618    1
  4600    6440    1
  4601    4604    1
  4601    4605    1
  4601    4606    1
  4601    4608    1
  4601    4610    1
  4601    4617    1
  4601    4618    1
  4601    6438    1
  4602    4609    1
  4602    4615    1
  4602    4616    1
  4602    6436    1
  4602    6439    1
  4602    6440    1
  4603    4608    1
  4603    4614    1
  4603    6438    1
  4604    4607    1
  4605    4607    1
  4606    4607    1
  4607    4610    1
  4607    4614    1
  4607    6434    1
  4607    6437    1
  4607    6441    1
  4607    6442    1
  4607    6444    1
  4608    4611    1
  4608    4612    1
  4608    4613    1
  4608    6432    1
  4608    6436    1
  4608    6439    1
  4608    6443    1
  4608    6444    1
  4609    4614    1
  4609    6438    1
  4609    6441    1
  4609    6442    1
  4610    6440    1
  4614    4619    1
  4614    4620    1
  4615    4617    1
  4615    4618    1
  4616    4621    1
  4617    4619    1
  4617    4620    1
  4618    4621    1
  4624    4630    1
  4624    4631    1
  4624    4632    1
  4624    4634    1
  4624    4654    1
  4624    4656    1
  4624    4658    1
  4625    4629    1
  4625    4633    1
  4625    4657    1
  4626    4629    1
  4626    4633    1
  4626    4657    1
  4627    4629    1
  4627    4633    1
  4627    4657    1
  4628    4635    1
  4628    4653    1
  4628    4655    1
  4628    4659    1
  4628    4660    1
  4628    4691    1
  4629    4634    1
  4629    4654    1
  4629    4656    1
  4629    4658    1
  4630    4633    1
  4630    4657    1
  4631    4633    1
  4631    4657    1
  4632    4633    1
  4632    4657    1
  4633    4636    1
  4633    4637    1
  4633    4640    1
  4633    4658    1
  4633    4691    1
  4634    4638    1
  4634    4653    1
  4634    4655    1
  4634    4658    1
  4634    4690    1
  4634    4692    1
  4635    4639    1
  4635    4640    1
  4635    4648    1
  4635    4654    1
  4635    4657    1
  4635    4691    1
  4636    4638    1
  4636    4653    1
  4636    4656    1
  4637    4641    1
  4637    4642    1
  4637    4646    1
  4637    4649    1
  4637    4650    1
  4637    4655    1
  4637    4656    1
  4638    4643    1
  4638    4644    1
  4638    4647    1
  4638    4651    1
  4638    4652    1
  4638    4654    1
  4638    6263    1
  4639    4641    1
  4639    4642    1
  4639    4646    1
  4639    4649    1
  4639    4650    1
  4639    4653    1
  4640    4645    1
  4640    4646    1
  4640    4649    1
  4640    4651    1
  4640    4652    1
  4640    4655    1
  4640    6264    1
  4641    4643    1
  4641    4644    1
  4641    4648    1
  4641    4650    1
  4641    4654    1
  4642    4647    1
  4642    4649    1
  4642    4654    1
  4642    6263    1
  4642    6265    1
  4643    4645    1
  4643    4646    1
  4643    4648    1
  4643    4651    1
  4643    4652    1
  4643    4653    1
  4643    6264    1
  4644    4649    1
  4644    4651    1
  4644    4652    1
  4644    4653    1
  4644    6256    1
  4644    6258    1
  4644    6266    1
  4645    4647    1
  4645    4648    1
  4645    4650    1
  4645    6263    1
  4645    6265    1
  4646    4651    1
  4646    4652    1
  4646    6257    1
  4646    6259    1
  4646    6265    1
  4647    4649    1
  4647    4650    1
  4647    6258    1
  4647    6264    1
  4648    4653    1
  4648    6258    1
  4648    6264    1
  4649    4651    1
  4649    4652    1
  4649    6263    1
  4650    4653    1
  4650    6263    1
  4650    6264    1
  4654    4656    1
  4654    4657    1
  4656    4659    1
  4656    4660    1
  4656    4663    1
  4657    4661    1
  4657    4690    1
  4657    4692    1
  4658    4662    1
  4658    4663    1
  4658    4685    1
  4658    4691    1
  4659    4661    1
  4659    4690    1
  4660    4664    1
  4660    4665    1
  4660    4683    1
  4660    4686    1
  4660    4687    1
  4660    4692    1
  4661    4666    1
  4661    4667    1
  4661    4670    1
  4661    4684    1
  4661    4688    1
  4661    4689    1
  4661    4691    1
  4662    4664    1
  4662    4665    1
  4662    4683    1
  4662    4686    1
  4662    4687    1
  4662    4690    1
  4663    4668    1
  4663    4669    1
  4663    4683    1
  4663    4686    1
  4663    4688    1
  4663    4689    1
  4663    4692    1
  4664    4666    1
  4664    4667    1
  4664    4685    1
  4664    4687    1
  4664    4691    1
  4665    4670    1
  4665    4678    1
  4665    4684    1
  4665    4686    1
  4665    4691    1
  4666    4668    1
  4666    4669    1
  4666    4683    1
  4666    4685    1
  4666    4688    1
  4666    4689    1
  4666    4690    1
  4667    4671    1
  4667    4677    1
  4667    4679    1
  4667    4686    1
  4667    4688    1
  4667    4689    1
  4667    4690    1
  4668    4670    1
  4668    4678    1
  4668    4684    1
  4668    4685    1
  4668    4687    1
  4669    4672    1
  4669    4676    1
  4669    4680    1
  4669    4681    1
  4669    4682    1
  4669    4684    1
  4669    4685    1
  4669    4687    1
  4670    4673    1
  4670    4674    1
  4670    4675    1
  4670    4677    1
  4670    4679    1
  4670    4686    1
  4670    4687    1
  4671    4678    1
  4671    4684    1
  4671    4685    1
  4672    4677    1
  4672    4683    1
  4673    4676    1
  4674    4676    1
  4675    4676    1
  4676    4679    1
  4676    4683    1
  4677    4680    1
  4677    4681    1
  4677    4682    1
  4678    4683    1
  4683    4688    1
  4683    4689    1
  4684    4686    1
  4684    4687    1
  4685    4690    1
  4686    4688    1
  4686    4689    1
  4687    4690    1
  4693    4699    1
  4693    4700    1
  4693    4701    1
  4693    4703    1
  4693    4723    1
  4693    4725    1
  4693    4727    1
  4694    4698    1
  4694    4702    1
  4694    4726    1
  4695    4698    1
  4695    4702    1
  4695    4726    1
  4696    4698    1
  4696    4702    1
  4696    4726    1
  4697    4704    1
  4697    4722    1
  4697    4724    1
  4697    4728    1
  4697    4729    1
  4697    4760    1
  4698    4703    1
  4698    4723    1
  4698    4725    1
  4698    4727    1
  4699    4702    1
  4699    4726    1
  4700    4702    1
  4700    4726    1
  4701    4702    1
  4701    4726    1
  4702    4705    1
  4702    4706    1
  4702    4709    1
  4702    4727    1
  4702    4760    1
  4703    4707    1
  4703    4722    1
  4703    4724    1
  4703    4727    1
  4703    4759    1
  4703    4761    1
  4704    4708    1
  4704    4709    1
  4704    4717    1
  4704    4723    1
  4704    4726    1
  4704    4760    1
  4705    4707    1
  4705    4722    1
  4705    4725    1
  4706    4710    1
  4706    4711    1
  4706    4715    1
  4706    4718    1
  4706    4719    1
  4706    4724    1
  4706    4725    1
  4707    4712    1
  4707    4713    1
  4707    4716    1
  4707    4720    1
  4707    4721    1
  4707    4723    1
  4707    6746    1
  4708    4710    1
  4708    4711    1
  4708    4715    1
  4708    4718    1
  4708    4719    1
  4708    4722    1
  4709    4714    1
  4709    4715    1
  4709    4718    1
  4709    4720    1
  4709    4721    1
  4709    4724    1
  4709    6747    1
  4710    4712    1
  4710    4713    1
  4710    4717    1
  4710    4719    1
  4710    4723    1
  4711    4716    1
  4711    4718    1
  4711    4723    1
  4711    6746    1
  4711    6748    1
  4712    4714    1
  4712    4715    1
  4712    4717    1
  4712    4720    1
  4712    4721    1
  4712    4722    1
  4712    6747    1
  4713    4718    1
  4713    4720    1
  4713    4721    1
  4713    4722    1
  4713    6739    1
  4713    6741    1
  4713    6749    1
  4714    4716    1
  4714    4717    1
  4714    4719    1
  4714    6746    1
  4714    6748    1
  4715    4720    1
  4715    4721    1
  4715    6740    1
  4715    6742    1
  4715    6748    1
  4716    4718    1
  4716    4719    1
  4716    6741    1
  4716    6747    1
  4717    4722    1
  4717    6741    1
  4717    6747    1
  4718    4720    1
  4718    4721    1
  4718    6746    1
  4719    4722    1
  4719    6746    1
  4719    6747    1
  4723    4725    1
  4723    4726    1
  4725    4728    1
  4725    4729    1
  4725    4732    1
  4726    4730    1
  4726    4759    1
  4726    4761    1
  4727    4731    1
  4727    4732    1
  4727    4754    1
  4727    4760    1
  4728    4730    1
  4728    4759    1
  4729    4733    1
  4729    4734    1
  4729    4752    1
  4729    4755    1
  4729    4756    1
  4729    4761    1
  4730    4735    1
  4730    4736    1
  4730    4739    1
  4730    4753    1
  4730    4757    1
  4730    4758    1
  4730    4760    1
  4731    4733    1
  4731    4734    1
  4731    4752    1
  4731    4755    1
  4731    4756    1
  4731    4759    1
  4732    4737    1
  4732    4738    1
  4732    4752    1
  4732    4755    1
  4732    4757    1
  4732    4758    1
  4732    4761    1
  4733    4735    1
  4733    4736    1
  4733    4754    1
  4733    4756    1
  4733    4760    1
  4734    4739    1
  4734    4747    1
  4734    4753    1
  4734    4755    1
  4734    4760    1
  4735    4737    1
  4735    4738    1
  4735    4752    1
  4735    4754    1
  4735    4757    1
  4735    4758    1
  4735    4759    1
  4736    4740    1
  4736    4746    1
  4736    4748    1
  4736    4755    1
  4736    4757    1
  4736    4758    1
  4736    4759    1
  4737    4739    1
  4737    4747    1
  4737    4753    1
  4737    4754    1
  4737    4756    1
  4738    4741    1
  4738    4745    1
  4738    4749    1
  4738    4750    1
  4738    4751    1
  4738    4753    1
  4738    4754    1
  4738    4756    1
  4738    5541    1
  4739    4742    1
  4739    4743    1
  4739    4744    1
  4739    4746    1
  4739    4748    1
  4739    4755    1
  4739    4756    1
  4739    5543    1
  4740    4747    1
  4740    4753    1
  4740    4754    1
  4740    5541    1
  4740    5544    1
  4740    5545    1
  4741    4746    1
  4741    4752    1
  4741    5543    1
  4742    4745    1
  4743    4745    1
  4744    4745    1
  4745    4748    1
  4745    4752    1
  4745    5535    1
  4745    5539    1
  4745    5542    1
  4745    5546    1
  4745    5547    1
  4746    4749    1
  4746    4750    1
  4746    4751    1
  4746    5537    1
  4746    5540    1
  4746    5544    1
  4746    5545    1
  4746    5547    1
  4747    4752    1
  4747    5539    1
  4747    5542    1
  4747    5543    1
  4748    5541    1
  4752    4757    1
  4752    4758    1
  4753    4755    1
  4753    4756    1
  4754    4759    1
  4755    4757    1
  4755    4758    1
  4756    4759    1
  4762    4768    1
  4762    4769    1
  4762    4770    1
  4762    4772    1
  4762    4792    1
  4762    4794    1
  4762    4796    1
  4763    4767    1
  4763    4771    1
  4763    4795    1
  4764    4767    1
  4764    4771    1
  4764    4795    1
  4765    4767    1
  4765    4771    1
  4765    4795    1
  4766    4773    1
  4766    4791    1
  4766    4793    1
  4766    4797    1
  4766    4798    1
  4766    4829    1
  4767    4772    1
  4767    4792    1
  4767    4794    1
  4767    4796    1
  4768    4771    1
  4768    4795    1
  4769    4771    1
  4769    4795    1
  4770    4771    1
  4770    4795    1
  4771    4774    1
  4771    4775    1
  4771    4778    1
  4771    4796    1
  4771    4829    1
  4772    4776    1
  4772    4791    1
  4772    4793    1
  4772    4796    1
  4772    4828    1
  4772    4830    1
  4773    4777    1
  4773    4778    1
  4773    4786    1
  4773    4792    1
  4773    4795    1
  4773    4829    1
  4774    4776    1
  4774    4791    1
  4774    4794    1
  4775    4779    1
  4775    4780    1
  4775    4784    1
  4775    4787    1
  4775    4788    1
  4775    4793    1
  4775    4794    1
  4776    4781    1
  4776    4782    1
  4776    4785    1
  4776    4789    1
  4776    4790    1
  4776    4792    1
  4776    6884    1
  4777    4779    1
  4777    4780    1
  4777    4784    1
  4777    4787    1
  4777    4788    1
  4777    4791    1
  4778    4783    1
  4778    4784    1
  4778    4787    1
  4778    4789    1
  4778    4790    1
  4778    4793    1
  4778    6885    1
  4779    4781    1
  4779    4782    1
  4779    4786    1
  4779    4788    1
  4779    4792    1
  4780    4785    1
  4780    4787    1
  4780    4792    1
  4780    6884    1
  4780    6886    1
  4781    4783    1
  4781    4784    1
  4781    4786    1
  4781    4789    1
  4781    4790    1
  4781    4791    1
  4781    6885    1
  4782    4787    1
  4782    4789    1
  4782    4790    1
  4782    4791    1
  4782    6877    1
  4782    6879    1
  4782    6887    1
  4783    4785    1
  4783    4786    1
  4783    4788    1
  4783    6884    1
  4783    6886    1
  4784    4789    1
  4784    4790    1
  4784    6878    1
  4784    6880    1
  4784    6886    1
  4785    4787    1
  4785    4788    1
  4785    6879    1
  4785    6885    1
  4786    4791    1
  4786    6879    1
  4786    6885    1
  4787    4789    1
  4787    4790    1
  4787    6884    1
  4788    4791    1
  4788    6884    1
  4788    6885    1
  4792    4794    1
  4792    4795    1
  4794    4797    1
  4794    4798    1
  4794    4801    1
  4795    4799    1
  4795    4828    1
  4795    4830    1
  4796    4800    1
  4796    4801    1
  4796    4823    1
  4796    4829    1
  4797    4799    1
  4797    4828    1
  4798    4802    1
  4798    4803    1
  4798    4821    1
  4798    4824    1
  4798    4825    1
  4798    4830    1
  4799    4804    1
  4799    4805    1
  4799    4808    1
  4799    4822    1
  4799    4826    1
  4799    4827    1
  4799    4829    1
  4800    4802    1
  4800    4803    1
  4800    4821    1
  4800    4824    1
  4800    4825    1
  4800    4828    1
  4801    4806    1
  4801    4807    1
  4801    4821    1
  4801    4824    1
  4801    4826    1
  4801    4827    1
  4801    4830    1
  4802    4804    1
  4802    4805    1
  4802    4823    1
  4802    4825    1
  4802    4829    1
  4803    4808    1
  4803    4816    1
  4803    4822    1
  4803    4824    1
  4803    4829    1
  4804    4806    1
  4804    4807    1
  4804    4821    1
  4804    4823    1
  4804    4826    1
  4804    4827    1
  4804    4828    1
  4805    4809    1
  4805    4815    1
  4805    4817    1
  4805    4824    1
  4805    4826    1
  4805    4827    1
  4805    4828    1
  4806    4808    1
  4806    4816    1
  4806    4822    1
  4806    4823    1
  4806    4825    1
  4807    4810    1
  4807    4814    1
  4807    4818    1
  4807    4819    1
  4807    4820    1
  4807    4822    1
  4807    4823    1
  4807    4825    1
  4807    6783    1
  4808    4811    1
  4808    4812    1
  4808    4813    1
  4808    4815    1
  4808    4817    1
  4808    4824    1
  4808    4825    1
  4808    6785    1
  4809    4816    1
  4809    4822    1
  4809    4823    1
  4809    6783    1
  4809    6786    1
  4809    6787    1
  4810    4815    1
  4810    4821    1
  4810    6785    1
  4811    4814    1
  4812    4814    1
  4813    4814    1
  4814    4817    1
  4814    4821    1
  4814    6777    1
  4814    6781    1
  4814    6784    1
  4814    6788    1
  4814    6789    1
  4815    4818    1
  4815    4819    1
  4815    4820    1
  4815    6779    1
  4815    6782    1
  4815    6786    1
  4815    6787    1
  4815    6789    1
  4816    4821    1
  4816    6781    1
  4816    6784    1
  4816    6785    1
  4817    6783    1
  4821    4826    1
  4821    4827    1
  4822    4824    1
  4822    4825    1
  4823    4828    1
  4824    4826    1
  4824    4827    1
  4825    4828    1
  4831    4837    1
  4831    4838    1
  4831    4839    1
  4831    4841    1
  4831    4861    1
  4831    4863    1
  4831    4865    1
  4832    4836    1
  4832    4840    1
  4832    4864    1
  4833    4836    1
  4833    4840    1
  4833    4864    1
  4834    4836    1
  4834    4840    1
  4834    4864    1
  4835    4842    1
  4835    4860    1
  4835    4862    1
  4835    4866    1
  4835    4867    1
  4835    4898    1
  4836    4841    1
  4836    4861    1
  4836    4863    1
  4836    4865    1
  4837    4840    1
  4837    4864    1
  4838    4840    1
  4838    4864    1
  4839    4840    1
  4839    4864    1
  4840    4843    1
  4840    4844    1
  4840    4847    1
  4840    4865    1
  4840    4898    1
  4841    4845    1
  4841    4860    1
  4841    4862    1
  4841    4865    1
  4841    4897    1
  4841    4899    1
  4842    4846    1
  4842    4847    1
  4842    4855    1
  4842    4861    1
  4842    4864    1
  4842    4898    1
  4843    4845    1
  4843    4860    1
  4843    4863    1
  4844    4848    1
  4844    4849    1
  4844    4853    1
  4844    4856    1
  4844    4857    1
  4844    4862    1
  4844    4863    1
  4845    4850    1
  4845    4851    1
  4845    4854    1
  4845    4858    1
  4845    4859    1
  4845    4861    1
  4846    4848    1
  4846    4849    1
  4846    4853    1
  4846    4856    1
  4846    4857    1
  4846    4860    1
  4847    4852    1
  4847    4853    1
  4847    4856    1
  4847    4858    1
  4847    4859    1
  4847    4862    1
  4848    4850    1
  4848    4851    1
  4848    4855    1
  4848    4857    1
  4848    4861    1
  4849    4854    1
  4849    4856    1
  4849    4861    1
  4850    4852    1
  4850    4853    1
  4850    4855    1
  4850    4858    1
  4850    4859    1
  4850    4860    1
  4851    4856    1
  4851    4858    1
  4851    4859    1
  4851    4860    1
  4852    4854    1
  4852    4855    1
  4852    4857    1
  4853    4858    1
  4853    4859    1
  4854    4856    1
  4854    4857    1
  4855    4860    1
  4856    4858    1
  4856    4859    1
  4857    4860    1
  4861    4863    1
  4861    4864    1
  4863    4866    1
  4863    4867    1
  4863    4870    1
  4864    4868    1
  4864    4897    1
  4864    4899    1
  4865    4869    1
  4865    4870    1
  4865    4892    1
  4865    4898    1
  4866    4868    1
  4866    4897    1
  4867    4871    1
  4867    4872    1
  4867    4890    1
  4867    4893    1
  4867    4894    1
  4867    4899    1
  4868    4873    1
  4868    4874    1
  4868    4877    1
  4868    4891    1
  4868    4895    1
  4868    4896    1
  4868    4898    1
  4869    4871    1
  4869    4872    1
  4869    4890    1
  4869    4893    1
  4869    4894    1
  4869    4897    1
  4870    4875    1
  4870    4876    1
  4870    4890    1
  4870    4893    1
  4870    4895    1
  4870    4896    1
  4870    4899    1
  4871    4873    1
  4871    4874    1
  4871    4892    1
  4871    4894    1
  4871    4898    1
  4872    4877    1
  4872    4885    1
  4872    4891    1
  4872    4893    1
  4872    4898    1
  4873    4875    1
  4873    4876    1
  4873    4890    1
  4873    4892    1
  4873    4895    1
  4873    4896    1
  4873    4897    1
  4874    4878    1
  4874    4884    1
  4874    4886    1
  4874    4893    1
  4874    4895    1
  4874    4896    1
  4874    4897    1
  4875    4877    1
  4875    4885    1
  4875    4891    1
  4875    4892    1
  4875    4894    1
  4876    4879    1
  4876    4883    1
  4876    4887    1
  4876    4888    1
  4876    4889    1
  4876    4891    1
  4876    4892    1
  4876    4894    1
  4877    4880    1
  4877    4881    1
  4877    4882    1
  4877    4884    1
  4877    4886    1
  4877    4893    1
  4877    4894    1
  4878    4885    1
  4878    4891    1
  4878    4892    1
  4879    4884    1
  4879    4890    1
  4880    4883    1
  4881    4883    1
  4882    4883    1
  4883    4886    1
  4883    4890    1
  4884    4887    1
  4884    4888    1
  4884    4889    1
  4885    4890    1
  4890    4895    1
  4890    4896    1
  4891    4893    1
  4891    4894    1
  4892    4897    1
  4893    4895    1
  4893    4896    1
  4894    4897    1
  4900    4906    1
  4900    4907    1
  4900    4908    1
  4900    4910    1
  4900    4930    1
  4900    4932    1
  4900    4934    1
  4901    4905    1
  4901    4909    1
  4901    4933    1
  4902    4905    1
  4902    4909    1
  4902    4933    1
  4903    4905    1
  4903    4909    1
  4903    4933    1
  4904    4911    1
  4904    4929    1
  4904    4931    1
  4904    4935    1
  4904    4936    1
  4904    4967    1
  4905    4910    1
  4905    4930    1
  4905    4932    1
  4905    4934    1
  4906    4909    1
  4906    4933    1
  4907    4909    1
  4907    4933    1
  4908    4909    1
  4908    4933    1
  4909    4912    1
  4909    4913    1
  4909    4916    1
  4909    4934    1
  4909    4967    1
  4910    4914    1
  4910    4929    1
  4910    4931    1
  4910    4934    1
  4910    4966    1
  4910    4968    1
  4911    4915    1
  4911    4916    1
  4911    4924    1
  4911    4930    1
  4911    4933    1
  4911    4967    1
  4912    4914    1
  4912    4929    1
  4912    4932    1
  4913    4917    1
  4913    4918    1
  4913    4922    1
  4913    4925    1
  4913    4926    1
  4913    4931    1
  4913    4932    1
  4914    4919    1
  4914    4920    1
  4914    4923    1
  4914    4927    1
  4914    4928    1
  4914    4930    1
  4915    4917    1
  4915    4918    1
  4915    4922    1
  4915    4925    1
  4915    4926    1
  4915    4929    1
  4916    4921    1
  4916    4922    1
  4916    4925    1
  4916    4927    1
  4916    4928    1
  4916    4931    1
  4917    4919    1
  4917    4920    1
  4917    4924    1
  4917    4926    1
  4917    4930    1
  4918    4923    1
  4918    4925    1
  4918    4930    1
  4919    4921    1
  4919    4922    1
  4919    4924    1
  4919    4927    1
  4919    4928    1
  4919    4929    1
  4920    4925    1
  4920    4927    1
  4920    4928    1
  4920    4929    1
  4921    4923    1
  4921    4924    1
  4921    4926    1
  4922    4927    1
  4922    4928    1
  4923    4925    1
  4923    4926    1
  4924    4929    1
  4925    4927    1
  4925    4928    1
  4926    4929    1
  4930    4932    1
  4930    4933    1
  4932    4935    1
  4932    4936    1
  4932    4939    1
  4933    4937    1
  4933    4966    1
  4933    4968    1
  4934    4938    1
  4934    4939    1
  4934    4961    1
  4934    4967    1
  4935    4937    1
  4935    4966    1
  4936    4940    1
  4936    4941    1
  4936    4959    1
  4936    4962    1
  4936    4963    1
  4936    4968    1
  4937    4942    1
  4937    4943    1
  4937    4946    1
  4937    4960    1
  4937    4964    1
  4937    4965    1
  4937    4967    1
  4938    4940    1
  4938    4941    1
  4938    4959    1
  4938    4962    1
  4938    4963    1
  4938    4966    1
  4939    4944    1
  4939    4945    1
  4939    4959    1
  4939    4962    1
  4939    4964    1
  4939    4965    1
  4939    4968    1
  4940    4942    1
  4940    4943    1
  4940    4961    1
  4940    4963    1
  4940    4967    1
  4941    4946    1
  4941    4954    1
  4941    4960    1
  4941    4962    1
  4941    4967    1
  4942    4944    1
  4942    4945    1
  4942    4959    1
  4942    4961    1
  4942    4964    1
  4942    4965    1
  4942    4966    1
  4943    4947    1
  4943    4953    1
  4943    4955    1
  4943    4962    1
  4943    4964    1
  4943    4965    1
  4943    4966    1
  4944    4946    1
  4944    4954    1
  4944    4960    1
  4944    4961    1
  4944    4963    1
  4945    4948    1
  4945    4952    1
  4945    4956    1
  4945    4957    1
  4945    4958    1
  4945    4960    1
  4945    4961    1
  4945    4963    1
  4946    4949    1
  4946    4950    1
  4946    4951    1
  4946    4953    1
  4946    4955    1
  4946    4962    1
  4946    4963    1
  4947    4954    1
  4947    4960    1
  4947    4961    1
  4948    4953    1
  4948    4959    1
  4949    4952    1
  4950    4952    1
  4951    4952    1
  4952    4955    1
  4952    4959    1
  4953    4956    1
  4953    4957    1
  4953    4958    1
  4954    4959    1
  4959    4964    1
  4959    4965    1
  4960    4962    1
  4960    4963    1
  4961    4966    1
  4962    4964    1
  4962    4965    1
  4963    4966    1
  4969    4975    1
  4969    4976    1
  4969    4977    1
  4969    4979    1
  4969    4999    1
  4969    5001    1
  4969    5003    1
  4970    4974    1
  4970    4978    1
  4970    5002    1
  4971    4974    1
  4971    4978    1
  4971    5002    1
  4972    4974    1
  4972    4978    1
  4972    5002    1
  4973    4980    1
  4973    4998    1
  4973    5000    1
  4973    5004    1
  4973    5005    1
  4973    5036    1
  4974    4979    1
  4974    4999    1
  4974    5001    1
  4974    5003    1
  4975    4978    1
  4975    5002    1
  4976    4978    1
  4976    5002    1
  4977    4978    1
  4977    5002    1
  4978    4981    1
  4978    4982    1
  4978    4985    1
  4978    5003    1
  4978    5036    1
  4979    4983    1
  4979    4998    1
  4979    5000    1
  4979    5003    1
  4979    5035    1
  4979    5037    1
  4980    4984    1
  4980    4985    1
  4980    4993    1
  4980    4999    1
  4980    5002    1
  4980    5036    1
  4981    4983    1
  4981    4998    1
  4981    5001    1
  4982    4986    1
  4982    4987    1
  4982    4991    1
  4982    4994    1
  4982    4995    1
  4982    5000    1
  4982    5001    1
  4983    4988    1
  4983    4989    1
  4983    4992    1
  4983    4996    1
  4983    4997    1
  4983    4999    1
  4984    4986    1
  4984    4987    1
  4984    4991    1
  4984    4994    1
  4984    4995    1
  4984    4998    1
  4985    4990    1
  4985    4991    1
  4985    4994    1
  4985    4996    1
  4985    4997    1
  4985    5000    1
  4986    4988    1
  4986    4989    1
  4986    4993    1
  4986    4995    1
  4986    4999    1
  4987    4992    1
  4987    4994    1
  4987    4999    1
  4988    4990    1
  4988    4991    1
  4988    4993    1
  4988    4996    1
  4988    4997    1
  4988    4998    1
  4989    4994    1
  4989    4996    1
  4989    4997    1
  4989    4998    1
  4990    4992    1
  4990    4993    1
  4990    4995    1
  4991    4996    1
  4991    4997    1
  4992    4994    1
  4992    4995    1
  4993    4998    1
  4994    4996    1
  4994    4997    1
  4995    4998    1
  4999    5001    1
  4999    5002    1
  5001    5004    1
  5001    5005    1
  5001    5008    1
  5002    5006    1
  5002    5035    1
  5002    5037    1
  5003    5007    1
  5003    5008    1
  5003    5030    1
  5003    5036    1
  5004    5006    1
  5004    5035    1
  5005    5009    1
  5005    5010    1
  5005    5028    1
  5005    5031    1
  5005    5032    1
  5005    5037    1
  5006    5011    1
  5006    5012    1
  5006    5015    1
  5006    5029    1
  5006    5033    1
  5006    5034    1
  5006    5036    1
  5007    5009    1
  5007    5010    1
  5007    5028    1
  5007    5031    1
  5007    5032    1
  5007    5035    1
  5008    5013    1
  5008    5014    1
  5008    5028    1
  5008    5031    1
  5008    5033    1
  5008    5034    1
  5008    5037    1
  5009    5011    1
  5009    5012    1
  5009    5030    1
  5009    5032    1
  5009    5036    1
  5010    5015    1
  5010    5023    1
  5010    5029    1
  5010    5031    1
  5010    5036    1
  5011    5013    1
  5011    5014    1
  5011    5028    1
  5011    5030    1
  5011    5033    1
  5011    5034    1
  5011    5035    1
  5012    5016    1
  5012    5022    1
  5012    5024    1
  5012    5031    1
  5012    5033    1
  5012    5034    1
  5012    5035    1
  5013    5015    1
  5013    5023    1
  5013    5029    1
  5013    5030    1
  5013    5032    1
  5014    5017    1
  5014    5021    1
  5014    5025    1
  5014    5026    1
  5014    5027    1
  5014    5029    1
  5014    5030    1
  5014    5032    1
  5015    5018    1
  5015    5019    1
  5015    5020    1
  5015    5022    1
  5015    5024    1
  5015    5031    1
  5015    5032    1
  5016    5023    1
  5016    5029    1
  5016    5030    1
  5017    5022    1
  5017    5028    1
  5018    5021    1
  5019    5021    1
  5020    5021    1
  5021    5024    1
  5021    5028    1
  5022    5025    1
  5022    5026    1
  5022    5027    1
  5023    5028    1
  5028    5033    1
  5028    5034    1
  5029    5031    1
  5029    5032    1
  5030    5035    1
  5031    5033    1
  5031    5034    1
  5032    5035    1
  5038    5044    1
  5038    5045    1
  5038    5046    1
  5038    5048    1
  5038    5068    1
  5038    5070    1
  5038    5072    1
  5039    5043    1
  5039    5047    1
  5039    5071    1
  5040    5043    1
  5040    5047    1
  5040    5071    1
  5041    5043    1
  5041    5047    1
  5041    5071    1
  5042    5049    1
  5042    5067    1
  5042    5069    1
  5042    5073    1
  5042    5074    1
  5042    5105    1
  5043    5048    1
  5043    5068    1
  5043    5070    1
  5043    5072    1
  5044    5047    1
  5044    5071    1
  5045    5047    1
  5045    5071    1
  5046    5047    1
  5046    5071    1
  5047    5050    1
  5047    5051    1
  5047    5054    1
  5047    5072    1
  5047    5105    1
  5048    5052    1
  5048    5067    1
  5048    5069    1
  5048    5072    1
  5048    5104    1
  5048    5106    1
  5049    5053    1
  5049    5054    1
  5049    5062    1
  5049    5068    1
  5049    5071    1
  5049    5105    1
  5050    5052    1
  5050    5067    1
  5050    5070    1
  5051    5055    1
  5051    5056    1
  5051    5060    1
  5051    5063    1
  5051    5064    1
  5051    5069    1
  5051    5070    1
  5052    5057    1
  5052    5058    1
  5052    5061    1
  5052    5065    1
  5052    5066    1
  5052    5068    1
  5053    5055    1
  5053    5056    1
  5053    5060    1
  5053    5063    1
  5053    5064    1
  5053    5067    1
  5054    5059    1
  5054    5060    1
  5054    5063    1
  5054    5065    1
  5054    5066    1
  5054    5069    1
  5055    5057    1
  5055    5058    1
  5055    5062    1
  5055    5064    1
  5055    5068    1
  5056    5061    1
  5056    5063    1
  5056    5068    1
  5057    5059    1
  5057    5060    1
  5057    5062    1
  5057    5065    1
  5057    5066    1
  5057    5067    1
  5058    5063    1
  5058    5065    1
  5058    5066    1
  5058    5067    1
  5059    5061    1
  5059    5062    1
  5059    5064    1
  5060    5065    1
  5060    5066    1
  5061    5063    1
  5061    5064    1
  5062    5067    1
  5063    5065    1
  5063    5066    1
  5064    5067    1
  5068    5070    1
  5068    5071    1
  5070    5073    1
  5070    5074    1
  5070    5077    1
  5071    5075    1
  5071    5104    1
  5071    5106    1
  5072    5076    1
  5072    5077    1
  5072    5099    1
  5072    5105    1
  5073    5075    1
  5073    5104    1
  5074    5078    1
  5074    5079    1
  5074    5097    1
  5074    5100    1
  5074    5101    1
  5074    5106    1
  5075    5080    1
  5075    5081    1
  5075    5084    1
  5075    5098    1
  5075    5102    1
  5075    5103    1
  5075    5105    1
  5076    5078    1
  5076    5079    1
  5076    5097    1
  5076    5100    1
  5076    5101    1
  5076    5104    1
  5077    5082    1
  5077    5083    1
  5077    5097    1
  5077    5100    1
  5077    5102    1
  5077    5103    1
  5077    5106    1
  5078    5080    1
  5078    5081    1
  5078    5099    1
  5078    5101    1
  5078    5105    1
  5079    5084    1
  5079    5092    1
  5079    5098    1
  5079    5100    1
  5079    5105    1
  5080    5082    1
  5080    5083    1
  5080    5097    1
  5080    5099    1
  5080    5102    1
  5080    5103    1
  5080    5104    1
  5081    5085    1
  5081    5091    1
  5081    5093    1
  5081    5100    1
  5081    5102    1
  5081    5103    1
  5081    5104    1
  5082    5084    1
  5082    5092    1
  5082    5098    1
  5082    5099    1
  5082    5101    1
  5083    5086    1
  5083    5090    1
  5083    5094    1
  5083    5095    1
  5083    5096    1
  5083    5098    1
  5083    5099    1
  5083    5101    1
  5084    5087    1
  5084    5088    1
  5084    5089    1
  5084    5091    1
  5084    5093    1
  5084    5100    1
  5084    5101    1
  5085    5092    1
  5085    5098    1
  5085    5099    1
  5086    5091    1
  5086    5097    1
  5087    5090    1
  5088    5090    1
  5089    5090    1
  5090    5093    1
  5090    5097    1
  5091    5094    1
  5091    5095    1
  5091    5096    1
  5092    5097    1
  5097    5102    1
  5097    5103    1
  5098    5100    1
  5098    5101    1
  5099    5104    1
  5100    5102    1
  5100    5103    1
  5101    5104    1
  5107    5113    1
  5107    5114    1
  5107    5115    1
  5107    5117    1
  5107    5137    1
  5107    5139    1
  5107    5141    1
  5108    5112    1
  5108    5116    1
  5108    5140    1
  5109    5112    1
  5109    5116    1
  5109    5140    1
  5110    5112    1
  5110    5116    1
  5110    5140    1
  5111    5118    1
  5111    5136    1
  5111    5138    1
  5111    5142    1
  5111    5143    1
  5111    5174    1
  5112    5117    1
  5112    5137    1
  5112    5139    1
  5112    5141    1
  5113    5116    1
  5113    5140    1
  5114    5116    1
  5114    5140    1
  5115    5116    1
  5115    5140    1
  5116    5119    1
  5116    5120    1
  5116    5123    1
  5116    5141    1
  5116    5174    1
  5117    5121    1
  5117    5136    1
  5117    5138    1
  5117    5141    1
  5117    5173    1
  5117    5175    1
  5118    5122    1
  5118    5123    1
  5118    5131    1
  5118    5137    1
  5118    5140    1
  5118    5174    1
  5119    5121    1
  5119    5136    1
  5119    5139    1
  5120    5124    1
  5120    5125    1
  5120    5129    1
  5120    5132    1
  5120    5133    1
  5120    5138    1
  5120    5139    1
  5121    5126    1
  5121    5127    1
  5121    5130    1
  5121    5134    1
  5121    5135    1
  5121    5137    1
  5122    5124    1
  5122    5125    1
  5122    5129    1
  5122    5132    1
  5122    5133    1
  5122    5136    1
  5123    5128    1
  5123    5129    1
  5123    5132    1
  5123    5134    1
  5123    5135    1
  5123    5138    1
  5124    5126    1
  5124    5127    1
  5124    5131    1
  5124    5133    1
  5124    5137    1
  5125    5130    1
  5125    5132    1
  5125    5137    1
  5126    5128    1
  5126    5129    1
  5126    5131    1
  5126    5134    1
  5126    5135    1
  5126    5136    1
  5127    5132    1
  5127    5134    1
  5127    5135    1
  5127    5136    1
  5128    5130    1
  5128    5131    1
  5128    5133    1
  5129    5134    1
  5129    5135    1
  5130    5132    1
  5130    5133    1
  5131    5136    1
  5132    5134    1
  5132    5135    1
  5133    5136    1
  5137    5139    1
  5137    5140    1
  5139    5142    1
  5139    5143    1
  5139    5146    1
  5140    5144    1
  5140    5173    1
  5140    5175    1
  5141    5145    1
  5141    5146    1
  5141    5168    1
  5141    5174    1
  5142    5144    1
  5142    5173    1
  5143    5147    1
  5143    5148    1
  5143    5166    1
  5143    5169    1
  5143    5170    1
  5143    5175    1
  5144    5149    1
  5144    5150    1
  5144    5153    1
  5144    5167    1
  5144    5171    1
  5144    5172    1
  5144    5174    1
  5145    5147    1
  5145    5148    1
  5145    5166    1
  5145    5169    1
  5145    5170    1
  5145    5173    1
  5146    5151    1
  5146    5152    1
  5146    5166    1
  5146    5169    1
  5146    5171    1
  5146    5172    1
  5146    5175    1
  5147    5149    1
  5147    5150    1
  5147    5168    1
  5147    5170    1
  5147    5174    1
  5148    5153    1
  5148    5161    1
  5148    5167    1
  5148    5169    1
  5148    5174    1
  5149    5151    1
  5149    5152    1
  5149    5166    1
  5149    5168    1
  5149    5171    1
  5149    5172    1
  5149    5173    1
  5150    5154    1
  5150    5160    1
  5150    5162    1
  5150    5169    1
  5150    5171    1
  5150    5172    1
  5150    5173    1
  5151    5153    1
  5151    5161    1
  5151    5167    1
  5151    5168    1
  5151    5170    1
  5152    5155    1
  5152    5159    1
  5152    5163    1
  5152    5164    1
  5152    5165    1
  5152    5167    1
  5152    5168    1
  5152    5170    1
  5153    5156    1
  5153    5157    1
  5153    5158    1
  5153    5160    1
  5153    5162    1
  5153    5169    1
  5153    5170    1
  5154    5161    1
  5154    5167    1
  5154    5168    1
  5155    5160    1
  5155    5166    1
  5156    5159    1
  5157    5159    1
  5158    5159    1
  5159    5162    1
  5159    5166    1
  5160    5163    1
  5160    5164    1
  5160    5165    1
  5161    5166    1
  5166    5171    1
  5166    5172    1
  5167    5169    1
  5167    5170    1
  5168    5173    1
  5169    5171    1
  5169    5172    1
  5170    5173    1
  5176    5182    1
  5176    5183    1
  5176    5184    1
  5176    5186    1
  5176    5206    1
  5176    5208    1
  5176    5210    1
  5177    5181    1
  5177    5185    1
  5177    5209    1
  5178    5181    1
  5178    5185    1
  5178    5209    1
  5179    5181    1
  5179    5185    1
  5179    5209    1
  5180    5187    1
  5180    5205    1
  5180    5207    1
  5180    5211    1
  5180    5212    1
  5180    5243    1
  5181    5186    1
  5181    5206    1
  5181    5208    1
  5181    5210    1
  5182    5185    1
  5182    5209    1
  5183    5185    1
  5183    5209    1
  5184    5185    1
  5184    5209    1
  5185    5188    1
  5185    5189    1
  5185    5192    1
  5185    5210    1
  5185    5243    1
  5186    5190    1
  5186    5205    1
  5186    5207    1
  5186    5210    1
  5186    5242    1
  5186    5244    1
  5187    5191    1
  5187    5192    1
  5187    5200    1
  5187    5206    1
  5187    5209    1
  5187    5243    1
  5188    5190    1
  5188    5205    1
  5188    5208    1
  5189    5193    1
  5189    5194    1
  5189    5198    1
  5189    5201    1
  5189    5202    1
  5189    5207    1
  5189    5208    1
  5190    5195    1
  5190    5196    1
  5190    5199    1
  5190    5203    1
  5190    5204    1
  5190    5206    1
  5191    5193    1
  5191    5194    1
  5191    5198    1
  5191    5201    1
  5191    5202    1
  5191    5205    1
  5192    5197    1
  5192    5198    1
  5192    5201    1
  5192    5203    1
  5192    5204    1
  5192    5207    1
  5193    5195    1
  5193    5196    1
  5193    5200    1
  5193    5202    1
  5193    5206    1
  5194    5199    1
  5194    5201    1
  5194    5206    1
  5195    5197    1
  5195    5198    1
  5195    5200    1
  5195    5203    1
  5195    5204    1
  5195    5205    1
  5196    5201    1
  5196    5203    1
  5196    5204    1
  5196    5205    1
  5197    5199    1
  5197    5200    1
  5197    5202    1
  5198    5203    1
  5198    5204    1
  5199    5201    1
  5199    5202    1
  5200    5205    1
  5201    5203    1
  5201    5204    1
  5202    5205    1
  5206    5208    1
  5206    5209    1
  5208    5211    1
  5208    5212    1
  5208    5215    1
  5209    5213    1
  5209    5242    1
  5209    5244    1
  5210    5214    1
  5210    5215    1
  5210    5237    1
  5210    5243    1
  5211    5213    1
  5211    5242    1
  5212    5216    1
  5212    5217    1
  5212    5235    1
  5212    5238    1
  5212    5239    1
  5212    5244    1
  5213    5218    1
  5213    5219    1
  5213    5222    1
  5213    5236    1
  5213    5240    1
  5213    5241    1
  5213    5243    1
  5214    5216    1
  5214    5217    1
  5214    5235    1
  5214    5238    1
  5214    5239    1
  5214    5242    1
  5215    5220    1
  5215    5221    1
  5215    5235    1
  5215    5238    1
  5215    5240    1
  5215    5241    1
  5215    5244    1
  5216    5218    1
  5216    5219    1
  5216    5237    1
  5216    5239    1
  5216    5243    1
  5217    5222    1
  5217    5230    1
  5217    5236    1
  5217    5238    1
  5217    5243    1
  5218    5220    1
  5218    5221    1
  5218    5235    1
  5218    5237    1
  5218    5240    1
  5218    5241    1
  5218    5242    1
  5219    5223    1
  5219    5229    1
  5219    5231    1
  5219    5238    1
  5219    5240    1
  5219    5241    1
  5219    5242    1
  5220    5222    1
  5220    5230    1
  5220    5236    1
  5220    5237    1
  5220    5239    1
  5221    5224    1
  5221    5228    1
  5221    5232    1
  5221    5233    1
  5221    5234    1
  5221    5236    1
  5221    5237    1
  5221    5239    1
  5222    5225    1
  5222    5226    1
  5222    5227    1
  5222    5229    1
  5222    5231    1
  5222    5238    1
  5222    5239    1
  5223    5230    1
  5223    5236    1
  5223    5237    1
  5224    5229    1
  5224    5235    1
  5225    5228    1
  5226    5228    1
  5227    5228    1
  5228    5231    1
  5228    5235    1
  5229    5232    1
  5229    5233    1
  5229    5234    1
  5230    5235    1
  5235    5240    1
  5235    5241    1
  5236    5238    1
  5236    5239    1
  5237    5242    1
  5238    5240    1
  5238    5241    1
  5239    5242    1
  5245    5251    1
  5245    5252    1
  5245    5253    1
  5245    5255    1
  5245    5275    1
  5245    5277    1
  5245    5279    1
  5246    5250    1
  5246    5254    1
  5246    5278    1
  5247    5250    1
  5247    5254    1
  5247    5278    1
  5248    5250    1
  5248    5254    1
  5248    5278    1
  5249    5256    1
  5249    5274    1
  5249    5276    1
  5249    5280    1
  5249    5281    1
  5249    5312    1
  5250    5255    1
  5250    5275    1
  5250    5277    1
  5250    5279    1
  5251    5254    1
  5251    5278    1
  5252    5254    1
  5252    5278    1
  5253    5254    1
  5253    5278    1
  5254    5257    1
  5254    5258    1
  5254    5261    1
  5254    5279    1
  5254    5312    1
  5255    5259    1
  5255    5274    1
  5255    5276    1
  5255    5279    1
  5255    5311    1
  5255    5313    1
  5256    5260    1
  5256    5261    1
  5256    5269    1
  5256    5275    1
  5256    5278    1
  5256    5312    1
  5257    5259    1
  5257    5274    1
  5257    5277    1
  5258    5262    1
  5258    5263    1
  5258    5267    1
  5258    5270    1
  5258    5271    1
  5258    5276    1
  5258    5277    1
  5259    5264    1
  5259    5265    1
  5259    5268    1
  5259    5272    1
  5259    5273    1
  5259    5275    1
  5260    5262    1
  5260    5263    1
  5260    5267    1
  5260    5270    1
  5260    5271    1
  5260    5274    1
  5261    5266    1
  5261    5267    1
  5261    5270    1
  5261    5272    1
  5261    5273    1
  5261    5276    1
  5262    5264    1
  5262    5265    1
  5262    5269    1
  5262    5271    1
  5262    5275    1
  5263    5268    1
  5263    5270    1
  5263    5275    1
  5264    5266    1
  5264    5267    1
  5264    5269    1
  5264    5272    1
  5264    5273    1
  5264    5274    1
  5265    5270    1
  5265    5272    1
  5265    5273    1
  5265    5274    1
  5266    5268    1
  5266    5269    1
  5266    5271    1
  5267    5272    1
  5267    5273    1
  5268    5270    1
  5268    5271    1
  5269    5274    1
  5270    5272    1
  5270    5273    1
  5271    5274    1
  5275    5277    1
  5275    5278    1
  5277    5280    1
  5277    5281    1
  5277    5284    1
  5278    5282    1
  5278    5311    1
  5278    5313    1
  5279    5283    1
  5279    5284    1
  5279    5306    1
  5279    5312    1
  5280    5282    1
  5280    5311    1
  5281    5285    1
  5281    5286    1
  5281    5304    1
  5281    5307    1
  5281    5308    1
  5281    5313    1
  5282    5287    1
  5282    5288    1
  5282    5291    1
  5282    5305    1
  5282    5309    1
  5282    5310    1
  5282    5312    1
  5283    5285    1
  5283    5286    1
  5283    5304    1
  5283    5307    1
  5283    5308    1
  5283    5311    1
  5284    5289    1
  5284    5290    1
  5284    5304    1
  5284    5307    1
  5284    5309    1
  5284    5310    1
  5284    5313    1
  5285    5287    1
  5285    5288    1
  5285    5306    1
  5285    5308    1
  5285    5312    1
  5286    5291    1
  5286    5299    1
  5286    5305    1
  5286    5307    1
  5286    5312    1
  5287    5289    1
  5287    5290    1
  5287    5304    1
  5287    5306    1
  5287    5309    1
  5287    5310    1
  5287    5311    1
  5288    5292    1
  5288    5298    1
  5288    5300    1
  5288    5307    1
  5288    5309    1
  5288    5310    1
  5288    5311    1
  5289    5291    1
  5289    5299    1
  5289    5305    1
  5289    5306    1
  5289    5308    1
  5290    5293    1
  5290    5297    1
  5290    5301    1
  5290    5302    1
  5290    5303    1
  5290    5305    1
  5290    5306    1
  5290    5308    1
  5290    6854    1
  5291    5294    1
  5291    5295    1
  5291    5296    1
  5291    5298    1
  5291    5300    1
  5291    5307    1
  5291    5308    1
  5291    6852    1
  5292    5299    1
  5292    5305    1
  5292    5306    1
  5292    6850    1
  5292    6853    1
  5292    6854    1
  5293    5298    1
  5293    5304    1
  5293    6852    1
  5294    5297    1
  5295    5297    1
  5296    5297    1
  5297    5300    1
  5297    5304    1
  5297    6848    1
  5297    6851    1
  5297    6855    1
  5297    6856    1
  5297    6858    1
  5298    5301    1
  5298    5302    1
  5298    5303    1
  5298    6846    1
  5298    6850    1
  5298    6853    1
  5298    6857    1
  5298    6858    1
  5299    5304    1
  5299    6852    1
  5299    6855    1
  5299    6856    1
  5300    6854    1
  5304    5309    1
  5304    5310    1
  5305    5307    1
  5305    5308    1
  5306    5311    1
  5307    5309    1
  5307    5310    1
  5308    5311    1
  5314    5320    1
  5314    5321    1
  5314    5322    1
  5314    5324    1
  5314    5344    1
  5314    5346    1
  5314    5348    1
  5315    5319    1
  5315    5323    1
  5315    5347    1
  5316    5319    1
  5316    5323    1
  5316    5347    1
  5317    5319    1
  5317    5323    1
  5317    5347    1
  5318    5325    1
  5318    5343    1
  5318    5345    1
  5318    5349    1
  5318    5350    1
  5318    5381    1
  5319    5324    1
  5319    5344    1
  5319    5346    1
  5319    5348    1
  5320    5323    1
  5320    5347    1
  5321    5323    1
  5321    5347    1
  5322    5323    1
  5322    5347    1
  5323    5326    1
  5323    5327    1
  5323    5330    1
  5323    5348    1
  5323    5381    1
  5324    5328    1
  5324    5343    1
  5324    5345    1
  5324    5348    1
  5324    5380    1
  5324    5382    1
  5325    5329    1
  5325    5330    1
  5325    5338    1
  5325    5344    1
  5325    5347    1
  5325    5381    1
  5326    5328    1
  5326    5343    1
  5326    5346    1
  5327    5331    1
  5327    5332    1
  5327    5336    1
  5327    5339    1
  5327    5340    1
  5327    5345    1
  5327    5346    1
  5328    5333    1
  5328    5334    1
  5328    5337    1
  5328    5341    1
  5328    5342    1
  5328    5344    1
  5329    5331    1
  5329    5332    1
  5329    5336    1
  5329    5339    1
  5329    5340    1
  5329    5343    1
  5330    5335    1
  5330    5336    1
  5330    5339    1
  5330    5341    1
  5330    5342    1
  5330    5345    1
  5331    5333    1
  5331    5334    1
  5331    5338    1
  5331    5340    1
  5331    5344    1
  5332    5337    1
  5332    5339    1
  5332    5344    1
  5333    5335    1
  5333    5336    1
  5333    5338    1
  5333    5341    1
  5333    5342    1
  5333    5343    1
  5334    5339    1
  5334    5341    1
  5334    5342    1
  5334    5343    1
  5335    5337    1
  5335    5338    1
  5335    5340    1
  5336    5341    1
  5336    5342    1
  5337    5339    1
  5337    5340    1
  5338    5343    1
  5339    5341    1
  5339    5342    1
  5340    5343    1
  5344    5346    1
  5344    5347    1
  5346    5349    1
  5346    5350    1
  5346    5353    1
  5347    5351    1
  5347    5380    1
  5347    5382    1
  5348    5352    1
  5348    5353    1
  5348    5375    1
  5348    5381    1
  5349    5351    1
  5349    5380    1
  5350    5354    1
  5350    5355    1
  5350    5373    1
  5350    5376    1
  5350    5377    1
  5350    5382    1
  5351    5356    1
  5351    5357    1
  5351    5360    1
  5351    5374    1
  5351    5378    1
  5351    5379    1
  5351    5381    1
  5352    5354    1
  5352    5355    1
  5352    5373    1
  5352    5376    1
  5352    5377    1
  5352    5380    1
  5353    5358    1
  5353    5359    1
  5353    5373    1
  5353    5376    1
  5353    5378    1
  5353    5379    1
  5353    5382    1
  5354    5356    1
  5354    5357    1
  5354    5375    1
  5354    5377    1
  5354    5381    1
  5355    5360    1
  5355    5368    1
  5355    5374    1
  5355    5376    1
  5355    5381    1
  5356    5358    1
  5356    5359    1
  5356    5373    1
  5356    5375    1
  5356    5378    1
  5356    5379    1
  5356    5380    1
  5357    5361    1
  5357    5367    1
  5357    5369    1
  5357    5376    1
  5357    5378    1
  5357    5379    1
  5357    5380    1
  5358    5360    1
  5358    5368    1
  5358    5374    1
  5358    5375    1
  5358    5377    1
  5359    5362    1
  5359    5366    1
  5359    5370    1
  5359    5371    1
  5359    5372    1
  5359    5374    1
  5359    5375    1
  5359    5377    1
  5359    6716    1
  5360    5363    1
  5360    5364    1
  5360    5365    1
  5360    5367    1
  5360    5369    1
  5360    5376    1
  5360    5377    1
  5360    6714    1
  5361    5368    1
  5361    5374    1
  5361    5375    1
  5361    6712    1
  5361    6715    1
  5361    6716    1
  5362    5367    1
  5362    5373    1
  5362    6714    1
  5363    5366    1
  5364    5366    1
  5365    5366    1
  5366    5369    1
  5366    5373    1
  5366    6710    1
  5366    6713    1
  5366    6717    1
  5366    6718    1
  5366    6720    1
  5367    5370    1
  5367    5371    1
  5367    5372    1
  5367    6708    1
  5367    6712    1
  5367    6715    1
  5367    6719    1
  5367    6720    1
  5368    5373    1
  5368    6714    1
  5368    6717    1
  5368    6718    1
  5369    6716    1
  5373    5378    1
  5373    5379    1
  5374    5376    1
  5374    5377    1
  5375    5380    1
  5376    5378    1
  5376    5379    1
  5377    5380    1
  5383    5389    1
  5383    5390    1
  5383    5391    1
  5383    5393    1
  5383    5413    1
  5383    5415    1
  5383    5417    1
  5384    5388    1
  5384    5392    1
  5384    5416    1
  5385    5388    1
  5385    5392    1
  5385    5416    1
  5386    5388    1
  5386    5392    1
  5386    5416    1
  5387    5394    1
  5387    5412    1
  5387    5414    1
  5387    5418    1
  5387    5419    1
  5387    5450    1
  5388    5393    1
  5388    5413    1
  5388    5415    1
  5388    5417    1
  5389    5392    1
  5389    5416    1
  5390    5392    1
  5390    5416    1
  5391    5392    1
  5391    5416    1
  5392    5395    1
  5392    5396    1
  5392    5399    1
  5392    5417    1
  5392    5450    1
  5393    5397    1
  5393    5412    1
  5393    5414    1
  5393    5417    1
  5393    5449    1
  5393    5451    1
  5394    5398    1
  5394    5399    1
  5394    5407    1
  5394    5413    1
  5394    5416    1
  5394    5450    1
  5395    5397    1
  5395    5412    1
  5395    5415    1
  5396    5400    1
  5396    5401    1
  5396    5405    1
  5396    5408    1
  5396    5409    1
  5396    5414    1
  5396    5415    1
  5397    5402    1
  5397    5403    1
  5397    5406    1
  5397    5410    1
  5397    5411    1
  5397    5413    1
  5398    5400    1
  5398    5401    1
  5398    5405    1
  5398    5408    1
  5398    5409    1
  5398    5412    1
  5399    5404    1
  5399    5405    1
  5399    5408    1
  5399    5410    1
  5399    5411    1
  5399    5414    1
  5400    5402    1
  5400    5403    1
  5400    5407    1
  5400    5409    1
  5400    5413    1
  5401    5406    1
  5401    5408    1
  5401    5413    1
  5402    5404    1
  5402    5405    1
  5402    5407    1
  5402    5410    1
  5402    5411    1
  5402    5412    1
  5403    5408    1
  5403    5410    1
  5403    5411    1
  5403    5412    1
  5404    5406    1
  5404    5407    1
  5404    5409    1
  5405    5410    1
  5405    5411    1
  5406    5408    1
  5406    5409    1
  5407    5412    1
  5408    5410    1
  5408    5411    1
  5409    5412    1
  5413    5415    1
  5413    5416    1
  5415    5418    1
  5415    5419    1
  5415    5422    1
  5416    5420    1
  5416    5449    1
  5416    5451    1
  5417    5421    1
  5417    5422    1
  5417    5444    1
  5417    5450    1
  5418    5420    1
  5418    5449    1
  5419    5423    1
  5419    5424    1
  5419    5442    1
  5419    5445    1
  5419    5446    1
  5419    5451    1
  5420    5425    1
  5420    5426    1
  5420    5429    1
  5420    5443    1
  5420    5447    1
  5420    5448    1
  5420    5450    1
  5421    5423    1
  5421    5424    1
  5421    5442    1
  5421    5445    1
  5421    5446    1
  5421    5449    1
  5422    5427    1
  5422    5428    1
  5422    5442    1
  5422    5445    1
  5422    5447    1
  5422    5448    1
  5422    5451    1
  5423    5425    1
  5423    5426    1
  5423    5444    1
  5423    5446    1
  5423    5450    1
  5424    5429    1
  5424    5437    1
  5424    5443    1
  5424    5445    1
  5424    5450    1
  5425    5427    1
  5425    5428    1
  5425    5442    1
  5425    5444    1
  5425    5447    1
  5425    5448    1
  5425    5449    1
  5426    5430    1
  5426    5436    1
  5426    5438    1
  5426    5445    1
  5426    5447    1
  5426    5448    1
  5426    5449    1
  5427    5429    1
  5427    5437    1
  5427    5443    1
  5427    5444    1
  5427    5446    1
  5428    5431    1
  5428    5435    1
  5428    5439    1
  5428    5440    1
  5428    5441    1
  5428    5443    1
  5428    5444    1
  5428    5446    1
  5429    5432    1
  5429    5433    1
  5429    5434    1
  5429    5436    1
  5429    5438    1
  5429    5445    1
  5429    5446    1
  5430    5437    1
  5430    5443    1
  5430    5444    1
  5431    5436    1
  5431    5442    1
  5432    5435    1
  5433    5435    1
  5434    5435    1
  5435    5438    1
  5435    5442    1
  5436    5439    1
  5436    5440    1
  5436    5441    1
  5437    5442    1
  5442    5447    1
  5442    5448    1
  5443    5445    1
  5443    5446    1
  5444    5449    1
  5445    5447    1
  5445    5448    1
  5446    5449    1
  5452    5458    1
  5452    5459    1
  5452    5460    1
  5452    5462    1
  5452    5482    1
  5452    5484    1
  5452    5486    1
  5453    5457    1
  5453    5461    1
  5453    5485    1
  5454    5457    1
  5454    5461    1
  5454    5485    1
  5455    5457    1
  5455    5461    1
  5455    5485    1
  5456    5463    1
  5456    5481    1
  5456    5483    1
  5456    5487    1
  5456    5488    1
  5456    5519    1
  5457    5462    1
  5457    5482    1
  5457    5484    1
  5457    5486    1
  5458    5461    1
  5458    5485    1
  5459    5461    1
  5459    5485    1
  5460    5461    1
  5460    5485    1
  5461    5464    1
  5461    5465    1
  5461    5468    1
  5461    5486    1
  5461    5519    1
  5462    5466    1
  5462    5481    1
  5462    5483    1
  5462    5486    1
  5462    5518    1
  5462    5520    1
  5463    5467    1
  5463    5468    1
  5463    5476    1
  5463    5482    1
  5463    5485    1
  5463    5519    1
  5464    5466    1
  5464    5481    1
  5464    5484    1
  5465    5469    1
  5465    5470    1
  5465    5474    1
  5465    5477    1
  5465    5478    1
  5465    5483    1
  5465    5484    1
  5466    5471    1
  5466    5472    1
  5466    5475    1
  5466    5479    1
  5466    5480    1
  5466    5482    1
  5467    5469    1
  5467    5470    1
  5467    5474    1
  5467    5477    1
  5467    5478    1
  5467    5481    1
  5468    5473    1
  5468    5474    1
  5468    5477    1
  5468    5479    1
  5468    5480    1
  5468    5483    1
  5469    5471    1
  5469    5472    1
  5469    5476    1
  5469    5478    1
  5469    5482    1
  5470    5475    1
  5470    5477    1
  5470    5482    1
  5471    5473    1
  5471    5474    1
  5471    5476    1
  5471    5479    1
  5471    5480    1
  5471    5481    1
  5472    5477    1
  5472    5479    1
  5472    5480    1
  5472    5481    1
  5473    5475    1
  5473    5476    1
  5473    5478    1
  5474    5479    1
  5474    5480    1
  5475    5477    1
  5475    5478    1
  5476    5481    1
  5477    5479    1
  5477    5480    1
  5478    5481    1
  5482    5484    1
  5482    5485    1
  5484    5487    1
  5484    5488    1
  5484    5491    1
  5485    5489    1
  5485    5518    1
  5485    5520    1
  5486    5490    1
  5486    5491    1
  5486    5513    1
  5486    5519    1
  5487    5489    1
  5487    5518    1
  5488    5492    1
  5488    5493    1
  5488    5511    1
  5488    5514    1
  5488    5515    1
  5488    5520    1
  5489    5494    1
  5489    5495    1
  5489    5498    1
  5489    5512    1
  5489    5516    1
  5489    5517    1
  5489    5519    1
  5490    5492    1
  5490    5493    1
  5490    5511    1
  5490    5514    1
  5490    5515    1
  5490    5518    1
  5491    5496    1
  5491    5497    1
  5491    5511    1
  5491    5514    1
  5491    5516    1
  5491    5517    1
  5491    5520    1
  5492    5494    1
  5492    5495    1
  5492    5513    1
  5492    5515    1
  5492    5519    1
  5493    5498    1
  5493    5506    1
  5493    5512    1
  5493    5514    1
  5493    5519    1
  5494    5496    1
  5494    5497    1
  5494    5511    1
  5494    5513    1
  5494    5516    1
  5494    5517    1
  5494    5518    1
  5495    5499    1
  5495    5505    1
  5495    5507    1
  5495    5514    1
  5495    5516    1
  5495    5517    1
  5495    5518    1
  5496    5498    1
  5496    5506    1
  5496    5512    1
  5496    5513    1
  5496    5515    1
  5497    5500    1
  5497    5504    1
  5497    5508    1
  5497    5509    1
  5497    5510    1
  5497    5512    1
  5497    5513    1
  5497    5515    1
  5497    6024    1
  5498    5501    1
  5498    5502    1
  5498    5503    1
  5498    5505    1
  5498    5507    1
  5498    5514    1
  5498    5515    1
  5498    6026    1
  5499    5506    1
  5499    5512    1
  5499    5513    1
  5499    6024    1
  5499    6027    1
  5499    6028    1
  5500    5505    1
  5500    5511    1
  5500    6026    1
  5501    5504    1
  5502    5504    1
  5503    5504    1
  5504    5507    1
  5504    5511    1
  5504    6018    1
  5504    6022    1
  5504    6025    1
  5504    6029    1
  5504    6030    1
  5505    5508    1
  5505    5509    1
  5505    5510    1
  5505    6020    1
  5505    6023    1
  5505    6027    1
  5505    6028    1
  5505    6030    1
  5506    5511    1
  5506    6022    1
  5506    6025    1
  5506    6026    1
  5507    6024    1
  5511    5516    1
  5511    5517    1
  5512    5514    1
  5512    5515    1
  5513    5518    1
  5514    5516    1
  5514    5517    1
  5515    5518    1
  5521    5527    1
  5521    5528    1
  5521    5529    1
  5521    5531    1
  5521    5551    1
  5521    5553    1
  5521    5555    1
  5522    5526    1
  5522    5530    1
  5522    5554    1
  5523    5526    1
  5523    5530    1
  5523    5554    1
  5524    5526    1
  5524    5530    1
  5524    5554    1
  5525    5532    1
  5525    5550    1
  5525    5552    1
  5525    5556    1
  5525    5557    1
  5525    5588    1
  5526    5531    1
  5526    5551    1
  5526    5553    1
  5526    5555    1
  5527    5530    1
  5527    5554    1
  5528    5530    1
  5528    5554    1
  5529    5530    1
  5529    5554    1
  5530    5533    1
  5530    5534    1
  5530    5537    1
  5530    5555    1
  5530    5588    1
  5531    5535    1
  5531    5550    1
  5531    5552    1
  5531    5555    1
  5531    5587    1
  5531    5589    1
  5532    5536    1
  5532    5537    1
  5532    5545    1
  5532    5551    1
  5532    5554    1
  5532    5588    1
  5533    5535    1
  5533    5550    1
  5533    5553    1
  5534    5538    1
  5534    5539    1
  5534    5543    1
  5534    5546    1
  5534    5547    1
  5534    5552    1
  5534    5553    1
  5535    5540    1
  5535    5541    1
  5535    5544    1
  5535    5548    1
  5535    5549    1
  5535    5551    1
  5536    5538    1
  5536    5539    1
  5536    5543    1
  5536    5546    1
  5536    5547    1
  5536    5550    1
  5537    5542    1
  5537    5543    1
  5537    5546    1
  5537    5548    1
  5537    5549    1
  5537    5552    1
  5538    5540    1
  5538    5541    1
  5538    5545    1
  5538    5547    1
  5538    5551    1
  5539    5544    1
  5539    5546    1
  5539    5551    1
  5540    5542    1
  5540    5543    1
  5540    5545    1
  5540    5548    1
  5540    5549    1
  5540    5550    1
  5541    5546    1
  5541    5548    1
  5541    5549    1
  5541    5550    1
  5542    5544    1
  5542    5545    1
  5542    5547    1
  5543    5548    1
  5543    5549    1
  5544    5546    1
  5544    5547    1
  5545    5550    1
  5546    5548    1
  5546    5549    1
  5547    5550    1
  5551    5553    1
  5551    5554    1
  5553    5556    1
  5553    5557    1
  5553    5560    1
  5554    5558    1
  5554    5587    1
  5554    5589    1
  5555    5559    1
  5555    5560    1
  5555    5582    1
  5555    5588    1
  5556    5558    1
  5556    5587    1
  5557    5561    1
  5557    5562    1
  5557    5580    1
  5557    5583    1
  5557    5584    1
  5557    5589    1
  5558    5563    1
  5558    5564    1
  5558    5567    1
  5558    5581    1
  5558    5585    1
  5558    5586    1
  5558    5588    1
  5559    5561    1
  5559    5562    1
  5559    5580    1
  5559    5583    1
  5559    5584    1
  5559    5587    1
  5560    5565    1
  5560    5566    1
  5560    5580    1
  5560    5583    1
  5560    5585    1
  5560    5586    1
  5560    5589    1
  5561    5563    1
  5561    5564    1
  5561    5582    1
  5561    5584    1
  5561    5588    1
  5562    5567    1
  5562    5575    1
  5562    5581    1
  5562    5583    1
  5562    5588    1
  5563    5565    1
  5563    5566    1
  5563    5580    1
  5563    5582    1
  5563    5585    1
  5563    5586    1
  5563    5587    1
  5564    5568    1
  5564    5574    1
  5564    5576    1
  5564    5583    1
  5564    5585    1
  5564    5586    1
  5564    5587    1
  5565    5567    1
  5565    5575    1
  5565    5581    1
  5565    5582    1
  5565    5584    1
  5566    5569    1
  5566    5573    1
  5566    5577    1
  5566    5578    1
  5566    5579    1
  5566    5581    1
  5566    5582    1
  5566    5584    1
  5567    5570    1
  5567    5571    1
  5567    5572    1
  5567    5574    1
  5567    5576    1
  5567    5583    1
  5567    5584    1
  5568    5575    1
  5568    5581    1
  5568    5582    1
  5569    5574    1
  5569    5580    1
  5570    5573    1
  5571    5573    1
  5572    5573    1
  5573    5576    1
  5573    5580    1
  5574    5577    1
  5574    5578    1
  5574    5579    1
  5575    5580    1
  5580    5585    1
  5580    5586    1
  5581    5583    1
  5581    5584    1
  5582    5587    1
  5583    5585    1
  5583    5586    1
  5584    5587    1
  5590    5596    1
  5590    5597    1
  5590    5598    1
  5590    5600    1
  5590    5620    1
  5590    5622    1
  5590    5624    1
  5591    5595    1
  5591    5599    1
  5591    5623    1
  5592    5595    1
  5592    5599    1
  5592    5623    1
  5593    5595    1
  5593    5599    1
  5593    5623    1
  5594    5601    1
  5594    5619    1
  5594    5621    1
  5594    5625    1
  5594    5626    1
  5594    5657    1
  5595    5600    1
  5595    5620    1
  5595    5622    1
  5595    5624    1
  5596    5599    1
  5596    5623    1
  5597    5599    1
  5597    5623    1
  5598    5599    1
  5598    5623    1
  5599    5602    1
  5599    5603    1
  5599    5606    1
  5599    5624    1
  5599    5657    1
  5600    5604    1
  5600    5619    1
  5600    5621    1
  5600    5624    1
  5600    5656    1
  5600    5658    1
  5601    5605    1
  5601    5606    1
  5601    5614    1
  5601    5620    1
  5601    5623    1
  5601    5657    1
  5602    5604    1
  5602    5619    1
  5602    5622    1
  5603    5607    1
  5603    5608    1
  5603    5612    1
  5603    5615    1
  5603    5616    1
  5603    5621    1
  5603    5622    1
  5604    5609    1
  5604    5610    1
  5604    5613    1
  5604    5617    1
  5604    5618    1
  5604    5620    1
  5605    5607    1
  5605    5608    1
  5605    5612    1
  5605    5615    1
  5605    5616    1
  5605    5619    1
  5606    5611    1
  5606    5612    1
  5606    5615    1
  5606    5617    1
  5606    5618    1
  5606    5621    1
  5607    5609    1
  5607    5610    1
  5607    5614    1
  5607    5616    1
  5607    5620    1
  5608    5613    1
  5608    5615    1
  5608    5620    1
  5609    5611    1
  5609    5612    1
  5609    5614    1
  5609    5617    1
  5609    5618    1
  5609    5619    1
  5610    5615    1
  5610    5617    1
  5610    5618    1
  5610    5619    1
  5611    5613    1
  5611    5614    1
  5611    5616    1
  5612    5617    1
  5612    5618    1
  5613    5615    1
  5613    5616    1
  5614    5619    1
  5615    5617    1
  5615    5618    1
  5616    5619    1
  5620    5622    1
  5620    5623    1
  5622    5625    1
  5622    5626    1
  5622    5629    1
  5623    5627    1
  5623    5656    1
  5623    5658    1
  5624    5628    1
  5624    5629    1
  5624    5651    1
  5624    5657    1
  5625    5627    1
  5625    5656    1
  5626    5630    1
  5626    5631    1
  5626    5649    1
  5626    5652    1
  5626    5653    1
  5626    5658    1
  5627    5632    1
  5627    5633    1
  5627    5636    1
  5627    5650    1
  5627    5654    1
  5627    5655    1
  5627    5657    1
  5628    5630    1
  5628    5631    1
  5628    5649    1
  5628    5652    1
  5628    5653    1
  5628    5656    1
  5629    5634    1
  5629    5635    1
  5629    5649    1
  5629    5652    1
  5629    5654    1
  5629    5655    1
  5629    5658    1
  5630    5632    1
  5630    5633    1
  5630    5651    1
  5630    5653    1
  5630    5657    1
  5631    5636    1
  5631    5644    1
  5631    5650    1
  5631    5652    1
  5631    5657    1
  5632    5634    1
  5632    5635    1
  5632    5649    1
  5632    5651    1
  5632    5654    1
  5632    5655    1
  5632    5656    1
  5633    5637    1
  5633    5643    1
  5633    5645    1
  5633    5652    1
  5633    5654    1
  5633    5655    1
  5633    5656    1
  5634    5636    1
  5634    5644    1
  5634    5650    1
  5634    5651    1
  5634    5653    1
  5635    5638    1
  5635    5642    1
  5635    5646    1
  5635    5647    1
  5635    5648    1
  5635    5650    1
  5635    5651    1
  5635    5653    1
  5636    5639    1
  5636    5640    1
  5636    5641    1
  5636    5643    1
  5636    5645    1
  5636    5652    1
  5636    5653    1
  5637    5644    1
  5637    5650    1
  5637    5651    1
  5638    5643    1
  5638    5649    1
  5639    5642    1
  5640    5642    1
  5641    5642    1
  5642    5645    1
  5642    5649    1
  5643    5646    1
  5643    5647    1
  5643    5648    1
  5644    5649    1
  5649    5654    1
  5649    5655    1
  5650    5652    1
  5650    5653    1
  5651    5656    1
  5652    5654    1
  5652    5655    1
  5653    5656    1
  5659    5665    1
  5659    5666    1
  5659    5667    1
  5659    5669    1
  5659    5689    1
  5659    5691    1
  5659    5693    1
  5660    5664    1
  5660    5668    1
  5660    5692    1
  5661    5664    1
  5661    5668    1
  5661    5692    1
  5662    5664    1
  5662    5668    1
  5662    5692    1
  5663    5670    1
  5663    5688    1
  5663    5690    1
  5663    5694    1
  5663    5695    1
  5663    5726    1
  5664    5669    1
  5664    5689    1
  5664    5691    1
  5664    5693    1
  5665    5668    1
  5665    5692    1
  5666    5668    1
  5666    5692    1
  5667    5668    1
  5667    5692    1
  5668    5671    1
  5668    5672    1
  5668    5675    1
  5668    5693    1
  5668    5726    1
  5669    5673    1
  5669    5688    1
  5669    5690    1
  5669    5693    1
  5669    5725    1
  5669    5727    1
  5670    5674    1
  5670    5675    1
  5670    5683    1
  5670    5689    1
  5670    5692    1
  5670    5726    1
  5671    5673    1
  5671    5688    1
  5671    5691    1
  5672    5676    1
  5672    5677    1
  5672    5681    1
  5672    5684    1
  5672    5685    1
  5672    5690    1
  5672    5691    1
  5673    5678    1
  5673    5679    1
  5673    5682    1
  5673    5686    1
  5673    5687    1
  5673    5689    1
  5674    5676    1
  5674    5677    1
  5674    5681    1
  5674    5684    1
  5674    5685    1
  5674    5688    1
  5675    5680    1
  5675    5681    1
  5675    5684    1
  5675    5686    1
  5675    5687    1
  5675    5690    1
  5676    5678    1
  5676    5679    1
  5676    5683    1
  5676    5685    1
  5676    5689    1
  5677    5682    1
  5677    5684    1
  5677    5689    1
  5678    5680    1
  5678    5681    1
  5678    5683    1
  5678    5686    1
  5678    5687    1
  5678    5688    1
  5679    5684    1
  5679    5686    1
  5679    5687    1
  5679    5688    1
  5680    5682    1
  5680    5683    1
  5680    5685    1
  5681    5686    1
  5681    5687    1
  5682    5684    1
  5682    5685    1
  5683    5688    1
  5684    5686    1
  5684    5687    1
  5685    5688    1
  5689    5691    1
  5689    5692    1
  5691    5694    1
  5691    5695    1
  5691    5698    1
  5692    5696    1
  5692    5725    1
  5692    5727    1
  5693    5697    1
  5693    5698    1
  5693    5720    1
  5693    5726    1
  5694    5696    1
  5694    5725    1
  5695    5699    1
  5695    5700    1
  5695    5718    1
  5695    5721    1
  5695    5722    1
  5695    5727    1
  5696    5701    1
  5696    5702    1
  5696    5705    1
  5696    5719    1
  5696    5723    1
  5696    5724    1
  5696    5726    1
  5697    5699    1
  5697    5700    1
  5697    5718    1
  5697    5721    1
  5697    5722    1
  5697    5725    1
  5698    5703    1
  5698    5704    1
  5698    5718    1
  5698    5721    1
  5698    5723    1
  5698    5724    1
  5698    5727    1
  5699    5701    1
  5699    5702    1
  5699    5720    1
  5699    5722    1
  5699    5726    1
  5700    5705    1
  5700    5713    1
  5700    5719    1
  5700    5721    1
  5700    5726    1
  5701    5703    1
  5701    5704    1
  5701    5718    1
  5701    5720    1
  5701    5723    1
  5701    5724    1
  5701    5725    1
  5702    5706    1
  5702    5712    1
  5702    5714    1
  5702    5721    1
  5702    5723    1
  5702    5724    1
  5702    5725    1
  5703    5705    1
  5703    5713    1
  5703    5719    1
  5703    5720    1
  5703    5722    1
  5704    5707    1
  5704    5711    1
  5704    5715    1
  5704    5716    1
  5704    5717    1
  5704    5719    1
  5704    5720    1
  5704    5722    1
  5705    5708    1
  5705    5709    1
  5705    5710    1
  5705    5712    1
  5705    5714    1
  5705    5721    1
  5705    5722    1
  5706    5713    1
  5706    5719    1
  5706    5720    1
  5707    5712    1
  5707    5718    1
  5708    5711    1
  5709    5711    1
  5710    5711    1
  5711    5714    1
  5711    5718    1
  5712    5715    1
  5712    5716    1
  5712    5717    1
  5713    5718    1
  5718    5723    1
  5718    5724    1
  5719    5721    1
  5719    5722    1
  5720    5725    1
  5721    5723    1
  5721    5724    1
  5722    5725    1
  5728    5734    1
  5728    5735    1
  5728    5736    1
  5728    5738    1
  5728    5758    1
  5728    5760    1
  5728    5762    1
  5729    5733    1
  5729    5737    1
  5729    5761    1
  5730    5733    1
  5730    5737    1
  5730    5761    1
  5731    5733    1
  5731    5737    1
  5731    5761    1
  5732    5739    1
  5732    5757    1
  5732    5759    1
  5732    5763    1
  5732    5764    1
  5732    5795    1
  5733    5738    1
  5733    5758    1
  5733    5760    1
  5733    5762    1
  5734    5737    1
  5734    5761    1
  5735    5737    1
  5735    5761    1
  5736    5737    1
  5736    5761    1
  5737    5740    1
  5737    5741    1
  5737    5744    1
  5737    5762    1
  5737    5795    1
  5738    5742    1
  5738    5757    1
  5738    5759    1
  5738    5762    1
  5738    5794    1
  5738    5796    1
  5739    5743    1
  5739    5744    1
  5739    5752    1
  5739    5758    1
  5739    5761    1
  5739    5795    1
  5740    5742    1
  5740    5757    1
  5740    5760    1
  5741    5745    1
  5741    5746    1
  5741    5750    1
  5741    5753    1
  5741    5754    1
  5741    5759    1
  5741    5760    1
  5742    5747    1
  5742    5748    1
  5742    5751    1
  5742    5755    1
  5742    5756    1
  5742    5758    1
  5743    5745    1
  5743    5746    1
  5743    5750    1
  5743    5753    1
  5743    5754    1
  5743    5757    1
  5744    5749    1
  5744    5750    1
  5744    5753    1
  5744    5755    1
  5744    5756    1
  5744    5759    1
  5745    5747    1
  5745    5748    1
  5745    5752    1
  5745    5754    1
  5745    5758    1
  5746    5751    1
  5746    5753    1
  5746    5758    1
  5747    5749    1
  5747    5750    1
  5747    5752    1
  5747    5755    1
  5747    5756    1
  5747    5757    1
  5748    5753    1
  5748    5755    1
  5748    5756    1
  5748    5757    1
  5749    5751    1
  5749    5752    1
  5749    5754    1
  5750    5755    1
  5750    5756    1
  5751    5753    1
  5751    5754    1
  5752    5757    1
  5753    5755    1
  5753    5756    1
  5754    5757    1
  5758    5760    1
  5758    5761    1
  5760    5763    1
  5760    5764    1
  5760    5767    1
  5761    5765    1
  5761    5794    1
  5761    5796    1
  5762    5766    1
  5762    5767    1
  5762    5789    1
  5762    5795    1
  5763    5765    1
  5763    5794    1
  5764    5768    1
  5764    5769    1
  5764    5787    1
  5764    5790    1
  5764    5791    1
  5764    5796    1
  5765    5770    1
  5765    5771    1
  5765    5774    1
  5765    5788    1
  5765    5792    1
  5765    5793    1
  5765    5795    1
  5766    5768    1
  5766    5769    1
  5766    5787    1
  5766    5790    1
  5766    5791    1
  5766    5794    1
  5767    5772    1
  5767    5773    1
  5767    5787    1
  5767    5790    1
  5767    5792    1
  5767    5793    1
  5767    5796    1
  5768    5770    1
  5768    5771    1
  5768    5789    1
  5768    5791    1
  5768    5795    1
  5769    5774    1
  5769    5782    1
  5769    5788    1
  5769    5790    1
  5769    5795    1
  5770    5772    1
  5770    5773    1
  5770    5787    1
  5770    5789    1
  5770    5792    1
  5770    5793    1
  5770    5794    1
  5771    5775    1
  5771    5781    1
  5771    5783    1
  5771    5790    1
  5771    5792    1
  5771    5793    1
  5771    5794    1
  5772    5774    1
  5772    5782    1
  5772    5788    1
  5772    5789    1
  5772    5791    1
  5773    5776    1
  5773    5780    1
  5773    5784    1
  5773    5785    1
  5773    5786    1
  5773    5788    1
  5773    5789    1
  5773    5791    1
  5774    5777    1
  5774    5778    1
  5774    5779    1
  5774    5781    1
  5774    5783    1
  5774    5790    1
  5774    5791    1
  5775    5782    1
  5775    5788    1
  5775    5789    1
  5776    5781    1
  5776    5787    1
  5777    5780    1
  5778    5780    1
  5779    5780    1
  5780    5783    1
  5780    5787    1
  5781    5784    1
  5781    5785    1
  5781    5786    1
  5782    5787    1
  5787    5792    1
  5787    5793    1
  5788    5790    1
  5788    5791    1
  5789    5794    1
  5790    5792    1
  5790    5793    1
  5791    5794    1
  5797    5803    1
  5797    5804    1
  5797    5805    1
  5797    5807    1
  5797    5827    1
  5797    5829    1
  5797    5831    1
  5798    5802    1
  5798    5806    1
  5798    5830    1
  5799    5802    1
  5799    5806    1
  5799    5830    1
  5800    5802    1
  5800    5806    1
  5800    5830    1
  5801    5808    1
  5801    5826    1
  5801    5828    1
  5801    5832    1
  5801    5833    1
  5801    5864    1
  5802    5807    1
  5802    5827    1
  5802    5829    1
  5802    5831    1
  5803    5806    1
  5803    5830    1
  5804    5806    1
  5804    5830    1
  5805    5806    1
  5805    5830    1
  5806    5809    1
  5806    5810    1
  5806    5813    1
  5806    5831    1
  5806    5864    1
  5807    5811    1
  5807    5826    1
  5807    5828    1
  5807    5831    1
  5807    5863    1
  5807    5865    1
  5808    5812    1
  5808    5813    1
  5808    5821    1
  5808    5827    1
  5808    5830    1
  5808    5864    1
  5809    5811    1
  5809    5826    1
  5809    5829    1
  5810    5814    1
  5810    5815    1
  5810    5819    1
  5810    5822    1
  5810    5823    1
  5810    5828    1
  5810    5829    1
  5811    5816    1
  5811    5817    1
  5811    5820    1
  5811    5824    1
  5811    5825    1
  5811    5827    1
  5812    5814    1
  5812    5815    1
  5812    5819    1
  5812    5822    1
  5812    5823    1
  5812    5826    1
  5813    5818    1
  5813    5819    1
  5813    5822    1
  5813    5824    1
  5813    5825    1
  5813    5828    1
  5814    5816    1
  5814    5817    1
  5814    5821    1
  5814    5823    1
  5814    5827    1
  5815    5820    1
  5815    5822    1
  5815    5827    1
  5816    5818    1
  5816    5819    1
  5816    5821    1
  5816    5824    1
  5816    5825    1
  5816    5826    1
  5817    5822    1
  5817    5824    1
  5817    5825    1
  5817    5826    1
  5818    5820    1
  5818    5821    1
  5818    5823    1
  5819    5824    1
  5819    5825    1
  5820    5822    1
  5820    5823    1
  5821    5826    1
  5822    5824    1
  5822    5825    1
  5823    5826    1
  5827    5829    1
  5827    5830    1
  5829    5832    1
  5829    5833    1
  5829    5836    1
  5830    5834    1
  5830    5863    1
  5830    5865    1
  5831    5835    1
  5831    5836    1
  5831    5858    1
  5831    5864    1
  5832    5834    1
  5832    5863    1
  5833    5837    1
  5833    5838    1
  5833    5856    1
  5833    5859    1
  5833    5860    1
  5833    5865    1
  5834    5839    1
  5834    5840    1
  5834    5843    1
  5834    5857    1
  5834    5861    1
  5834    5862    1
  5834    5864    1
  5835    5837    1
  5835    5838    1
  5835    5856    1
  5835    5859    1
  5835    5860    1
  5835    5863    1
  5836    5841    1
  5836    5842    1
  5836    5856    1
  5836    5859    1
  5836    5861    1
  5836    5862    1
  5836    5865    1
  5837    5839    1
  5837    5840    1
  5837    5858    1
  5837    5860    1
  5837    5864    1
  5838    5843    1
  5838    5851    1
  5838    5857    1
  5838    5859    1
  5838    5864    1
  5839    5841    1
  5839    5842    1
  5839    5856    1
  5839    5858    1
  5839    5861    1
  5839    5862    1
  5839    5863    1
  5840    5844    1
  5840    5850    1
  5840    5852    1
  5840    5859    1
  5840    5861    1
  5840    5862    1
  5840    5863    1
  5841    5843    1
  5841    5851    1
  5841    5857    1
  5841    5858    1
  5841    5860    1
  5842    5845    1
  5842    5849    1
  5842    5853    1
  5842    5854    1
  5842    5855    1
  5842    5857    1
  5842    5858    1
  5842    5860    1
  5843    5846    1
  5843    5847    1
  5843    5848    1
  5843    5850    1
  5843    5852    1
  5843    5859    1
  5843    5860    1
  5844    5851    1
  5844    5857    1
  5844    5858    1
  5845    5850    1
  5845    5856    1
  5846    5849    1
  5847    5849    1
  5848    5849    1
  5849    5852    1
  5849    5856    1
  5850    5853    1
  5850    5854    1
  5850    5855    1
  5851    5856    1
  5856    5861    1
  5856    5862    1
  5857    5859    1
  5857    5860    1
  5858    5863    1
  5859    5861    1
  5859    5862    1
  5860    5863    1
  5866    5872    1
  5866    5873    1
  5866    5874    1
  5866    5876    1
  5866    5896    1
  5866    5898    1
  5866    5900    1
  5867    5871    1
  5867    5875    1
  5867    5899    1
  5868    5871    1
  5868    5875    1
  5868    5899    1
  5869    5871    1
  5869    5875    1
  5869    5899    1
  5870    5877    1
  5870    5895    1
  5870    5897    1
  5870    5901    1
  5870    5902    1
  5870    5933    1
  5871    5876    1
  5871    5896    1
  5871    5898    1
  5871    5900    1
  5872    5875    1
  5872    5899    1
  5873    5875    1
  5873    5899    1
  5874    5875    1
  5874    5899    1
  5875    5878    1
  5875    5879    1
  5875    5882    1
  5875    5900    1
  5875    5933    1
  5876    5880    1
  5876    5895    1
  5876    5897    1
  5876    5900    1
  5876    5932    1
  5876    5934    1
  5877    5881    1
  5877    5882    1
  5877    5890    1
  5877    5896    1
  5877    5899    1
  5877    5933    1
  5878    5880    1
  5878    5895    1
  5878    5898    1
  5879    5883    1
  5879    5884    1
  5879    5888    1
  5879    5891    1
  5879    5892    1
  5879    5897    1
  5879    5898    1
  5880    5885    1
  5880    5886    1
  5880    5889    1
  5880    5893    1
  5880    5894    1
  5880    5896    1
  5881    5883    1
  5881    5884    1
  5881    5888    1
  5881    5891    1
  5881    5892    1
  5881    5895    1
  5882    5887    1
  5882    5888    1
  5882    5891    1
  5882    5893    1
  5882    5894    1
  5882    5897    1
  5883    5885    1
  5883    5886    1
  5883    5890    1
  5883    5892    1
  5883    5896    1
  5884    5889    1
  5884    5891    1
  5884    5896    1
  5885    5887    1
  5885    5888    1
  5885    5890    1
  5885    5893    1
  5885    5894    1
  5885    5895    1
  5886    5891    1
  5886    5893    1
  5886    5894    1
  5886    5895    1
  5887    5889    1
  5887    5890    1
  5887    5892    1
  5888    5893    1
  5888    5894    1
  5889    5891    1
  5889    5892    1
  5890    5895    1
  5891    5893    1
  5891    5894    1
  5892    5895    1
  5896    5898    1
  5896    5899    1
  5898    5901    1
  5898    5902    1
  5898    5905    1
  5899    5903    1
  5899    5932    1
  5899    5934    1
  5900    5904    1
  5900    5905    1
  5900    5927    1
  5900    5933    1
  5901    5903    1
  5901    5932    1
  5902    5906    1
  5902    5907    1
  5902    5925    1
  5902    5928    1
  5902    5929    1
  5902    5934    1
  5903    5908    1
  5903    5909    1
  5903    5912    1
  5903    5926    1
  5903    5930    1
  5903    5931    1
  5903    5933    1
  5904    5906    1
  5904    5907    1
  5904    5925    1
  5904    5928    1
  5904    5929    1
  5904    5932    1
  5905    5910    1
  5905    5911    1
  5905    5925    1
  5905    5928    1
  5905    5930    1
  5905    5931    1
  5905    5934    1
  5906    5908    1
  5906    5909    1
  5906    5927    1
  5906    5929    1
  5906    5933    1
  5907    5912    1
  5907    5920    1
  5907    5926    1
  5907    5928    1
  5907    5933    1
  5908    5910    1
  5908    5911    1
  5908    5925    1
  5908    5927    1
  5908    5930    1
  5908    5931    1
  5908    5932    1
  5909    5913    1
  5909    5919    1
  5909    5921    1
  5909    5928    1
  5909    5930    1
  5909    5931    1
  5909    5932    1
  5910    5912    1
  5910    5920    1
  5910    5926    1
  5910    5927    1
  5910    5929    1
  5911    5914    1
  5911    5918    1
  5911    5922    1
  5911    5923    1
  5911    5924    1
  5911    5926    1
  5911    5927    1
  5911    5929    1
  5911    5957    1
  5912    5915    1
  5912    5916    1
  5912    5917    1
  5912    5919    1
  5912    5921    1
  5912    5928    1
  5912    5929    1
  5912    5955    1
  5913    5920    1
  5913    5926    1
  5913    5927    1
  5913    5953    1
  5913    5956    1
  5913    5957    1
  5914    5919    1
  5914    5925    1
  5914    5955    1
  5915    5918    1
  5916    5918    1
  5917    5918    1
  5918    5921    1
  5918    5925    1
  5918    5951    1
  5918    5954    1
  5918    5958    1
  5918    5959    1
  5918    5961    1
  5919    5922    1
  5919    5923    1
  5919    5924    1
  5919    5949    1
  5919    5953    1
  5919    5956    1
  5919    5960    1
  5919    5961    1
  5920    5925    1
  5920    5955    1
  5920    5958    1
  5920    5959    1
  5921    5957    1
  5925    5930    1
  5925    5931    1
  5926    5928    1
  5926    5929    1
  5927    5932    1
  5928    5930    1
  5928    5931    1
  5929    5932    1
  5935    5941    1
  5935    5942    1
  5935    5943    1
  5935    5945    1
  5935    5965    1
  5935    5967    1
  5935    5969    1
  5936    5940    1
  5936    5944    1
  5936    5968    1
  5937    5940    1
  5937    5944    1
  5937    5968    1
  5938    5940    1
  5938    5944    1
  5938    5968    1
  5939    5946    1
  5939    5964    1
  5939    5966    1
  5939    5970    1
  5939    5971    1
  5939    6002    1
  5940    5945    1
  5940    5965    1
  5940    5967    1
  5940    5969    1
  5941    5944    1
  5941    5968    1
  5942    5944    1
  5942    5968    1
  5943    5944    1
  5943    5968    1
  5944    5947    1
  5944    5948    1
  5944    5951    1
  5944    5969    1
  5944    6002    1
  5945    5949    1
  5945    5964    1
  5945    5966    1
  5945    5969    1
  5945    6001    1
  5945    6003    1
  5946    5950    1
  5946    5951    1
  5946    5959    1
  5946    5965    1
  5946    5968    1
  5946    6002    1
  5947    5949    1
  5947    5964    1
  5947    5967    1
  5948    5952    1
  5948    5953    1
  5948    5957    1
  5948    5960    1
  5948    5961    1
  5948    5966    1
  5948    5967    1
  5949    5954    1
  5949    5955    1
  5949    5958    1
  5949    5962    1
  5949    5963    1
  5949    5965    1
  5950    5952    1
  5950    5953    1
  5950    5957    1
  5950    5960    1
  5950    5961    1
  5950    5964    1
  5951    5956    1
  5951    5957    1
  5951    5960    1
  5951    5962    1
  5951    5963    1
  5951    5966    1
  5952    5954    1
  5952    5955    1
  5952    5959    1
  5952    5961    1
  5952    5965    1
  5953    5958    1
  5953    5960    1
  5953    5965    1
  5954    5956    1
  5954    5957    1
  5954    5959    1
  5954    5962    1
  5954    5963    1
  5954    5964    1
  5955    5960    1
  5955    5962    1
  5955    5963    1
  5955    5964    1
  5956    5958    1
  5956    5959    1
  5956    5961    1
  5957    5962    1
  5957    5963    1
  5958    5960    1
  5958    5961    1
  5959    5964    1
  5960    5962    1
  5960    5963    1
  5961    5964    1
  5965    5967    1
  5965    5968    1
  5967    5970    1
  5967    5971    1
  5967    5974    1
  5968    5972    1
  5968    6001    1
  5968    6003    1
  5969    5973    1
  5969    5974    1
  5969    5996    1
  5969    6002    1
  5970    5972    1
  5970    6001    1
  5971    5975    1
  5971    5976    1
  5971    5994    1
  5971    5997    1
  5971    5998    1
  5971    6003    1
  5972    5977    1
  5972    5978    1
  5972    5981    1
  5972    5995    1
  5972    5999    1
  5972    6000    1
  5972    6002    1
  5973    5975    1
  5973    5976    1
  5973    5994    1
  5973    5997    1
  5973    5998    1
  5973    6001    1
  5974    5979    1
  5974    5980    1
  5974    5994    1
  5974    5997    1
  5974    5999    1
  5974    6000    1
  5974    6003    1
  5975    5977    1
  5975    5978    1
  5975    5996    1
  5975    5998    1
  5975    6002    1
  5976    5981    1
  5976    5989    1
  5976    5995    1
  5976    5997    1
  5976    6002    1
  5977    5979    1
  5977    5980    1
  5977    5994    1
  5977    5996    1
  5977    5999    1
  5977    6000    1
  5977    6001    1
  5978    5982    1
  5978    5988    1
  5978    5990    1
  5978    5997    1
  5978    5999    1
  5978    6000    1
  5978    6001    1
  5979    5981    1
  5979    5989    1
  5979    5995    1
  5979    5996    1
  5979    5998    1
  5980    5983    1
  5980    5987    1
  5980    5991    1
  5980    5992    1
  5980    5993    1
  5980    5995    1
  5980    5996    1
  5980    5998    1
  5981    5984    1
  5981    5985    1
  5981    5986    1
  5981    5988    1
  5981    5990    1
  5981    5997    1
  5981    5998    1
  5982    5989    1
  5982    5995    1
  5982    5996    1
  5983    5988    1
  5983    5994    1
  5984    5987    1
  5985    5987    1
  5986    5987    1
  5987    5990    1
  5987    5994    1
  5988    5991    1
  5988    5992    1
  5988    5993    1
  5989    5994    1
  5994    5999    1
  5994    6000    1
  5995    5997    1
  5995    5998    1
  5996    6001    1
  5997    5999    1
  5997    6000    1
  5998    6001    1
  6004    6010    1
  6004    6011    1
  6004    6012    1
  6004    6014    1
  6004    6034    1
  6004    6036    1
  6004    6038    1
  6005    6009    1
  6005    6013    1
  6005    6037    1
  6006    6009    1
  6006    6013    1
  6006    6037    1
  6007    6009    1
  6007    6013    1
  6007    6037    1
  6008    6015    1
  6008    6033    1
  6008    6035    1
  6008    6039    1
  6008    6040    1
  6008    6071    1
  6009    6014    1
  6009    6034    1
  6009    6036    1
  6009    6038    1
  6010    6013    1
  6010    6037    1
  6011    6013    1
  6011    6037    1
  6012    6013    1
  6012    6037    1
  6013    6016    1
  6013    6017    1
  6013    6020    1
  6013    6038    1
  6013    6071    1
  6014    6018    1
  6014    6033    1
  6014    6035    1
  6014    6038    1
  6014    6070    1
  6014    6072    1
  6015    6019    1
  6015    6020    1
  6015    6028    1
  6015    6034    1
  6015    6037    1
  6015    6071    1
  6016    6018    1
  6016    6033    1
  6016    6036    1
  6017    6021    1
  6017    6022    1
  6017    6026    1
  6017    6029    1
  6017    6030    1
  6017    6035    1
  6017    6036    1
  6018    6023    1
  6018    6024    1
  6018    6027    1
  6018    6031    1
  6018    6032    1
  6018    6034    1
  6019    6021    1
  6019    6022    1
  6019    6026    1
  6019    6029    1
  6019    6030    1
  6019    6033    1
  6020    6025    1
  6020    6026    1
  6020    6029    1
  6020    6031    1
  6020    6032    1
  6020    6035    1
  6021    6023    1
  6021    6024    1
  6021    6028    1
  6021    6030    1
  6021    6034    1
  6022    6027    1
  6022    6029    1
  6022    6034    1
  6023    6025    1
  6023    6026    1
  6023    6028    1
  6023    6031    1
  6023    6032    1
  6023    6033    1
  6024    6029    1
  6024    6031    1
  6024    6032    1
  6024    6033    1
  6025    6027    1
  6025    6028    1
  6025    6030    1
  6026    6031    1
  6026    6032    1
  6027    6029    1
  6027    6030    1
  6028    6033    1
  6029    6031    1
  6029    6032    1
  6030    6033    1
  6034    6036    1
  6034    6037    1
  6036    6039    1
  6036    6040    1
  6036    6043    1
  6037    6041    1
  6037    6070    1
  6037    6072    1
  6038    6042    1
  6038    6043    1
  6038    6065    1
  6038    6071    1
  6039    6041    1
  6039    6070    1
  6040    6044    1
  6040    6045    1
  6040    6063    1
  6040    6066    1
  6040    6067    1
  6040    6072    1
  6041    6046    1
  6041    6047    1
  6041    6050    1
  6041    6064    1
  6041    6068    1
  6041    6069    1
  6041    6071    1
  6042    6044    1
  6042    6045    1
  6042    6063    1
  6042    6066    1
  6042    6067    1
  6042    6070    1
  6043    6048    1
  6043    6049    1
  6043    6063    1
  6043    6066    1
  6043    6068    1
  6043    6069    1
  6043    6072    1
  6044    6046    1
  6044    6047    1
  6044    6065    1
  6044    6067    1
  6044    6071    1
  6045    6050    1
  6045    6058    1
  6045    6064    1
  6045    6066    1
  6045    6071    1
  6046    6048    1
  6046    6049    1
  6046    6063    1
  6046    6065    1
  6046    6068    1
  6046    6069    1
  6046    6070    1
  6047    6051    1
  6047    6057    1
  6047    6059    1
  6047    6066    1
  6047    6068    1
  6047    6069    1
  6047    6070    1
  6048    6050    1
  6048    6058    1
  6048    6064    1
  6048    6065    1
  6048    6067    1
  6049    6052    1
  6049    6056    1
  6049    6060    1
  6049    6061    1
  6049    6062    1
  6049    6064    1
  6049    6065    1
  6049    6067    1
  6050    6053    1
  6050    6054    1
  6050    6055    1
  6050    6057    1
  6050    6059    1
  6050    6066    1
  6050    6067    1
  6051    6058    1
  6051    6064    1
  6051    6065    1
  6052    6057    1
  6052    6063    1
  6053    6056    1
  6054    6056    1
  6055    6056    1
  6056    6059    1
  6056    6063    1
  6057    6060    1
  6057    6061    1
  6057    6062    1
  6058    6063    1
  6063    6068    1
  6063    6069    1
  6064    6066    1
  6064    6067    1
  6065    6070    1
  6066    6068    1
  6066    6069    1
  6067    6070    1
  6073    6079    1
  6073    6080    1
  6073    6081    1
  6073    6083    1
  6073    6103    1
  6073    6105    1
  6073    6107    1
  6074    6078    1
  6074    6082    1
  6074    6106    1
  6075    6078    1
  6075    6082    1
  6075    6106    1
  6076    6078    1
  6076    6082    1
  6076    6106    1
  6077    6084    1
  6077    6102    1
  6077    6104    1
  6077    6108    1
  6077    6109    1
  6077    6140    1
  6078    6083    1
  6078    6103    1
  6078    6105    1
  6078    6107    1
  6079    6082    1
  6079    6106    1
  6080    6082    1
  6080    6106    1
  6081    6082    1
  6081    6106    1
  6082    6085    1
  6082    6086    1
  6082    6089    1
  6082    6107    1
  6082    6140    1
  6083    6087    1
  6083    6102    1
  6083    6104    1
  6083    6107    1
  6083    6139    1
  6083    6141    1
  6084    6088    1
  6084    6089    1
  6084    6097    1
  6084    6103    1
  6084    6106    1
  6084    6140    1
  6085    6087    1
  6085    6102    1
  6085    6105    1
  6086    6090    1
  6086    6091    1
  6086    6095    1
  6086    6098    1
  6086    6099    1
  6086    6104    1
  6086    6105    1
  6087    6092    1
  6087    6093    1
  6087    6096    1
  6087    6100    1
  6087    6101    1
  6087    6103    1
  6088    6090    1
  6088    6091    1
  6088    6095    1
  6088    6098    1
  6088    6099    1
  6088    6102    1
  6089    6094    1
  6089    6095    1
  6089    6098    1
  6089    6100    1
  6089    6101    1
  6089    6104    1
  6090    6092    1
  6090    6093    1
  6090    6097    1
  6090    6099    1
  6090    6103    1
  6091    6096    1
  6091    6098    1
  6091    6103    1
  6092    6094    1
  6092    6095    1
  6092    6097    1
  6092    6100    1
  6092    6101    1
  6092    6102    1
  6093    6098    1
  6093    6100    1
  6093    6101    1
  6093    6102    1
  6094    6096    1
  6094    6097    1
  6094    6099    1
  6095    6100    1
  6095    6101    1
  6096    6098    1
  6096    6099    1
  6097    6102    1
  6098    6100    1
  6098    6101    1
  6099    6102    1
  6103    6105    1
  6103    6106    1
  6105    6108    1
  6105    6109    1
  6105    6112    1
  6106    6110    1
  6106    6139    1
  6106    6141    1
  6107    6111    1
  6107    6112    1
  6107    6134    1
  6107    6140    1
  6108    6110    1
  6108    6139    1
  6109    6113    1
  6109    6114    1
  6109    6132    1
  6109    6135    1
  6109    6136    1
  6109    6141    1
  6110    6115    1
  6110    6116    1
  6110    6119    1
  6110    6133    1
  6110    6137    1
  6110    6138    1
  6110    6140    1
  6111    6113    1
  6111    6114    1
  6111    6132    1
  6111    6135    1
  6111    6136    1
  6111    6139    1
  6112    6117    1
  6112    6118    1
  6112    6132    1
  6112    6135    1
  6112    6137    1
  6112    6138    1
  6112    6141    1
  6113    6115    1
  6113    6116    1
  6113    6134    1
  6113    6136    1
  6113    6140    1
  6114    6119    1
  6114    6127    1
  6114    6133    1
  6114    6135    1
  6114    6140    1
  6115    6117    1
  6115    6118    1
  6115    6132    1
  6115    6134    1
  6115    6137    1
  6115    6138    1
  6115    6139    1
  6116    6120    1
  6116    6126    1
  6116    6128    1
  6116    6135    1
  6116    6137    1
  6116    6138    1
  6116    6139    1
  6117    6119    1
  6117    6127    1
  6117    6133    1
  6117    6134    1
  6117    6136    1
  6118    6121    1
  6118    6125    1
  6118    6129    1
  6118    6130    1
  6118    6131    1
  6118    6133    1
  6118    6134    1
  6118    6136    1
  6119    6122    1
  6119    6123    1
  6119    6124    1
  6119    6126    1
  6119    6128    1
  6119    6135    1
  6119    6136    1
  6120    6127    1
  6120    6133    1
  6120    6134    1
  6121    6126    1
  6121    6132    1
  6122    6125    1
  6123    6125    1
  6124    6125    1
  6125    6128    1
  6125    6132    1
  6126    6129    1
  6126    6130    1
  6126    6131    1
  6127    6132    1
  6132    6137    1
  6132    6138    1
  6133    6135    1
  6133    6136    1
  6134    6139    1
  6135    6137    1
  6135    6138    1
  6136    6139    1
  6142    6148    1
  6142    6149    1
  6142    6150    1
  6142    6152    1
  6142    6172    1
  6142    6174    1
  6142    6176    1
  6143    6147    1
  6143    6151    1
  6143    6175    1
  6144    6147    1
  6144    6151    1
  6144    6175    1
  6145    6147    1
  6145    6151    1
  6145    6175    1
  6146    6153    1
  6146    6171    1
  6146    6173    1
  6146    6177    1
  6146    6178    1
  6146    6209    1
  6147    6152    1
  6147    6172    1
  6147    6174    1
  6147    6176    1
  6148    6151    1
  6148    6175    1
  6149    6151    1
  6149    6175    1
  6150    6151    1
  6150    6175    1
  6151    6154    1
  6151    6155    1
  6151    6158    1
  6151    6176    1
  6151    6209    1
  6152    6156    1
  6152    6171    1
  6152    6173    1
  6152    6176    1
  6152    6208    1
  6152    6210    1
  6153    6157    1
  6153    6158    1
  6153    6166    1
  6153    6172    1
  6153    6175    1
  6153    6209    1
  6154    6156    1
  6154    6171    1
  6154    6174    1
  6155    6159    1
  6155    6160    1
  6155    6164    1
  6155    6167    1
  6155    6168    1
  6155    6173    1
  6155    6174    1
  6156    6161    1
  6156    6162    1
  6156    6165    1
  6156    6169    1
  6156    6170    1
  6156    6172    1
  6157    6159    1
  6157    6160    1
  6157    6164    1
  6157    6167    1
  6157    6168    1
  6157    6171    1
  6158    6163    1
  6158    6164    1
  6158    6167    1
  6158    6169    1
  6158    6170    1
  6158    6173    1
  6159    6161    1
  6159    6162    1
  6159    6166    1
  6159    6168    1
  6159    6172    1
  6160    6165    1
  6160    6167    1
  6160    6172    1
  6161    6163    1
  6161    6164    1
  6161    6166    1
  6161    6169    1
  6161    6170    1
  6161    6171    1
  6162    6167    1
  6162    6169    1
  6162    6170    1
  6162    6171    1
  6163    6165    1
  6163    6166    1
  6163    6168    1
  6164    6169    1
  6164    6170    1
  6165    6167    1
  6165    6168    1
  6166    6171    1
  6167    6169    1
  6167    6170    1
  6168    6171    1
  6172    6174    1
  6172    6175    1
  6174    6177    1
  6174    6178    1
  6174    6181    1
  6175    6179    1
  6175    6208    1
  6175    6210    1
  6176    6180    1
  6176    6181    1
  6176    6203    1
  6176    6209    1
  6177    6179    1
  6177    6208    1
  6178    6182    1
  6178    6183    1
  6178    6201    1
  6178    6204    1
  6178    6205    1
  6178    6210    1
  6179    6184    1
  6179    6185    1
  6179    6188    1
  6179    6202    1
  6179    6206    1
  6179    6207    1
  6179    6209    1
  6180    6182    1
  6180    6183    1
  6180    6201    1
  6180    6204    1
  6180    6205    1
  6180    6208    1
  6181    6186    1
  6181    6187    1
  6181    6201    1
  6181    6204    1
  6181    6206    1
  6181    6207    1
  6181    6210    1
  6182    6184    1
  6182    6185    1
  6182    6203    1
  6182    6205    1
  6182    6209    1
  6183    6188    1
  6183    6196    1
  6183    6202    1
  6183    6204    1
  6183    6209    1
  6184    6186    1
  6184    6187    1
  6184    6201    1
  6184    6203    1
  6184    6206    1
  6184    6207    1
  6184    6208    1
  6185    6189    1
  6185    6195    1
  6185    6197    1
  6185    6204    1
  6185    6206    1
  6185    6207    1
  6185    6208    1
  6186    6188    1
  6186    6196    1
  6186    6202    1
  6186    6203    1
  6186    6205    1
  6187    6190    1
  6187    6194    1
  6187    6198    1
  6187    6199    1
  6187    6200    1
  6187    6202    1
  6187    6203    1
  6187    6205    1
  6188    6191    1
  6188    6192    1
  6188    6193    1
  6188    6195    1
  6188    6197    1
  6188    6204    1
  6188    6205    1
  6189    6196    1
  6189    6202    1
  6189    6203    1
  6190    6195    1
  6190    6201    1
  6191    6194    1
  6192    6194    1
  6193    6194    1
  6194    6197    1
  6194    6201    1
  6195    6198    1
  6195    6199    1
  6195    6200    1
  6196    6201    1
  6201    6206    1
  6201    6207    1
  6202    6204    1
  6202    6205    1
  6203    6208    1
  6204    6206    1
  6204    6207    1
  6205    6208    1
  6211    6217    1
  6211    6218    1
  6211    6219    1
  6211    6221    1
  6211    6241    1
  6211    6243    1
  6211    6245    1
  6212    6216    1
  6212    6220    1
  6212    6244    1
  6213    6216    1
  6213    6220    1
  6213    6244    1
  6214    6216    1
  6214    6220    1
  6214    6244    1
  6215    6222    1
  6215    6240    1
  6215    6242    1
  6215    6246    1
  6215    6247    1
  6215    6278    1
  6216    6221    1
  6216    6241    1
  6216    6243    1
  6216    6245    1
  6217    6220    1
  6217    6244    1
  6218    6220    1
  6218    6244    1
  6219    6220    1
  6219    6244    1
  6220    6223    1
  6220    6224    1
  6220    6227    1
  6220    6245    1
  6220    6278    1
  6221    6225    1
  6221    6240    1
  6221    6242    1
  6221    6245    1
  6221    6277    1
  6221    6279    1
  6222    6226    1
  6222    6227    1
  6222    6235    1
  6222    6241    1
  6222    6244    1
  6222    6278    1
  6223    6225    1
  6223    6240    1
  6223    6243    1
  6224    6228    1
  6224    6229    1
  6224    6233    1
  6224    6236    1
  6224    6237    1
  6224    6242    1
  6224    6243    1
  6225    6230    1
  6225    6231    1
  6225    6234    1
  6225    6238    1
  6225    6239    1
  6225    6241    1
  6226    6228    1
  6226    6229    1
  6226    6233    1
  6226    6236    1
  6226    6237    1
  6226    6240    1
  6227    6232    1
  6227    6233    1
  6227    6236    1
  6227    6238    1
  6227    6239    1
  6227    6242    1
  6228    6230    1
  6228    6231    1
  6228    6235    1
  6228    6237    1
  6228    6241    1
  6229    6234    1
  6229    6236    1
  6229    6241    1
  6230    6232    1
  6230    6233    1
  6230    6235    1
  6230    6238    1
  6230    6239    1
  6230    6240    1
  6231    6236    1
  6231    6238    1
  6231    6239    1
  6231    6240    1
  6232    6234    1
  6232    6235    1
  6232    6237    1
  6233    6238    1
  6233    6239    1
  6234    6236    1
  6234    6237    1
  6235    6240    1
  6236    6238    1
  6236    6239    1
  6237    6240    1
  6241    6243    1
  6241    6244    1
  6243    6246    1
  6243    6247    1
  6243    6250    1
  6244    6248    1
  6244    6277    1
  6244    6279    1
  6245    6249    1
  6245    6250    1
  6245    6272    1
  6245    6278    1
  6246    6248    1
  6246    6277    1
  6247    6251    1
  6247    6252    1
  6247    6270    1
  6247    6273    1
  6247    6274    1
  6247    6279    1
  6248    6253    1
  6248    6254    1
  6248    6257    1
  6248    6271    1
  6248    6275    1
  6248    6276    1
  6248    6278    1
  6249    6251    1
  6249    6252    1
  6249    6270    1
  6249    6273    1
  6249    6274    1
  6249    6277    1
  6250    6255    1
  6250    6256    1
  6250    6270    1
  6250    6273    1
  6250    6275    1
  6250    6276    1
  6250    6279    1
  6251    6253    1
  6251    6254    1
  6251    6272    1
  6251    6274    1
  6251    6278    1
  6252    6257    1
  6252    6265    1
  6252    6271    1
  6252    6273    1
  6252    6278    1
  6253    6255    1
  6253    6256    1
  6253    6270    1
  6253    6272    1
  6253    6275    1
  6253    6276    1
  6253    6277    1
  6254    6258    1
  6254    6264    1
  6254    6266    1
  6254    6273    1
  6254    6275    1
  6254    6276    1
  6254    6277    1
  6255    6257    1
  6255    6265    1
  6255    6271    1
  6255    6272    1
  6255    6274    1
  6256    6259    1
  6256    6263    1
  6256    6267    1
  6256    6268    1
  6256    6269    1
  6256    6271    1
  6256    6272    1
  6256    6274    1
  6257    6260    1
  6257    6261    1
  6257    6262    1
  6257    6264    1
  6257    6266    1
  6257    6273    1
  6257    6274    1
  6258    6265    1
  6258    6271    1
  6258    6272    1
  6259    6264    1
  6259    6270    1
  6260    6263    1
  6261    6263    1
  6262    6263    1
  6263    6266    1
  6263    6270    1
  6264    6267    1
  6264    6268    1
  6264    6269    1
  6265    6270    1
  6270    6275    1
  6270    6276    1
  6271    6273    1
  6271    6274    1
  6272    6277    1
  6273    6275    1
  6273    6276    1
  6274    6277    1
  6280    6286    1
  6280    6287    1
  6280    6288    1
  6280    6290    1
  6280    6310    1
  6280    6312    1
  6280    6314    1
  6281    6285    1
  6281    6289    1
  6281    6313    1
  6282    6285    1
  6282    6289    1
  6282    6313    1
  6283    6285    1
  6283    6289    1
  6283    6313    1
  6284    6291    1
  6284    6309    1
  6284    6311    1
  6284    6315    1
  6284    6316    1
  6284    6347    1
  6285    6290    1
  6285    6310    1
  6285    6312    1
  6285    6314    1
  6286    6289    1
  6286    6313    1
  6287    6289    1
  6287    6313    1
  6288    6289    1
  6288    6313    1
  6289    6292    1
  6289    6293    1
  6289    6296    1
  6289    6314    1
  6289    6347    1
  6290    6294    1
  6290    6309    1
  6290    6311    1
  6290    6314    1
  6290    6346    1
  6290    6348    1
  6291    6295    1
  6291    6296    1
  6291    6304    1
  6291    6310    1
  6291    6313    1
  6291    6347    1
  6292    6294    1
  6292    6309    1
  6292    6312    1
  6293    6297    1
  6293    6298    1
  6293    6302    1
  6293    6305    1
  6293    6306    1
  6293    6311    1
  6293    6312    1
  6294    6299    1
  6294    6300    1
  6294    6303    1
  6294    6307    1
  6294    6308    1
  6294    6310    1
  6295    6297    1
  6295    6298    1
  6295    6302    1
  6295    6305    1
  6295    6306    1
  6295    6309    1
  6296    6301    1
  6296    6302    1
  6296    6305    1
  6296    6307    1
  6296    6308    1
  6296    6311    1
  6297    6299    1
  6297    6300    1
  6297    6304    1
  6297    6306    1
  6297    6310    1
  6298    6303    1
  6298    6305    1
  6298    6310    1
  6299    6301    1
  6299    6302    1
  6299    6304    1
  6299    6307    1
  6299    6308    1
  6299    6309    1
  6300    6305    1
  6300    6307    1
  6300    6308    1
  6300    6309    1
  6301    6303    1
  6301    6304    1
  6301    6306    1
  6302    6307    1
  6302    6308    1
  6303    6305    1
  6303    6306    1
  6304    6309    1
  6305    6307    1
  6305    6308    1
  6306    6309    1
  6310    6312    1
  6310    6313    1
  6312    6315    1
  6312    6316    1
  6312    6319    1
  6313    6317    1
  6313    6346    1
  6313    6348    1
  6314    6318    1
  6314    6319    1
  6314    6341    1
  6314    6347    1
  6315    6317    1
  6315    6346    1
  6316    6320    1
  6316    6321    1
  6316    6339    1
  6316    6342    1
  6316    6343    1
  6316    6348    1
  6317    6322    1
  6317    6323    1
  6317    6326    1
  6317    6340    1
  6317    6344    1
  6317    6345    1
  6317    6347    1
  6318    6320    1
  6318    6321    1
  6318    6339    1
  6318    6342    1
  6318    6343    1
  6318    6346    1
  6319    6324    1
  6319    6325    1
  6319    6339    1
  6319    6342    1
  6319    6344    1
  6319    6345    1
  6319    6348    1
  6320    6322    1
  6320    6323    1
  6320    6341    1
  6320    6343    1
  6320    6347    1
  6321    6326    1
  6321    6334    1
  6321    6340    1
  6321    6342    1
  6321    6347    1
  6322    6324    1
  6322    6325    1
  6322    6339    1
  6322    6341    1
  6322    6344    1
  6322    6345    1
  6322    6346    1
  6323    6327    1
  6323    6333    1
  6323    6335    1
  6323    6342    1
  6323    6344    1
  6323    6345    1
  6323    6346    1
  6324    6326    1
  6324    6334    1
  6324    6340    1
  6324    6341    1
  6324    6343    1
  6325    6328    1
  6325    6332    1
  6325    6336    1
  6325    6337    1
  6325    6338    1
  6325    6340    1
  6325    6341    1
  6325    6343    1
  6326    6329    1
  6326    6330    1
  6326    6331    1
  6326    6333    1
  6326    6335    1
  6326    6342    1
  6326    6343    1
  6327    6334    1
  6327    6340    1
  6327    6341    1
  6328    6333    1
  6328    6339    1
  6329    6332    1
  6330    6332    1
  6331    6332    1
  6332    6335    1
  6332    6339    1
  6333    6336    1
  6333    6337    1
  6333    6338    1
  6334    6339    1
  6339    6344    1
  6339    6345    1
  6340    6342    1
  6340    6343    1
  6341    6346    1
  6342    6344    1
  6342    6345    1
  6343    6346    1
  6349    6355    1
  6349    6356    1
  6349    6357    1
  6349    6359    1
  6349    6379    1
  6349    6381    1
  6349    6383    1
  6350    6354    1
  6350    6358    1
  6350    6382    1
  6351    6354    1
  6351    6358    1
  6351    6382    1
  6352    6354    1
  6352    6358    1
  6352    6382    1
  6353    6360    1
  6353    6378    1
  6353    6380    1
  6353    6384    1
  6353    6385    1
  6353    6416    1
  6354    6359    1
  6354    6379    1
  6354    6381    1
  6354    6383    1
  6355    6358    1
  6355    6382    1
  6356    6358    1
  6356    6382    1
  6357    6358    1
  6357    6382    1
  6358    6361    1
  6358    6362    1
  6358    6365    1
  6358    6383    1
  6358    6416    1
  6359    6363    1
  6359    6378    1
  6359    6380    1
  6359    6383    1
  6359    6415    1
  6359    6417    1
  6360    6364    1
  6360    6365    1
  6360    6373    1
  6360    6379    1
  6360    6382    1
  6360    6416    1
  6361    6363    1
  6361    6378    1
  6361    6381    1
  6362    6366    1
  6362    6367    1
  6362    6371    1
  6362    6374    1
  6362    6375    1
  6362    6380    1
  6362    6381    1
  6363    6368    1
  6363    6369    1
  6363    6372    1
  6363    6376    1
  6363    6377    1
  6363    6379    1
  6364    6366    1
  6364    6367    1
  6364    6371    1
  6364    6374    1
  6364    6375    1
  6364    6378    1
  6365    6370    1
  6365    6371    1
  6365    6374    1
  6365    6376    1
  6365    6377    1
  6365    6380    1
  6366    6368    1
  6366    6369    1
  6366    6373    1
  6366    6375    1
  6366    6379    1
  6367    6372    1
  6367    6374    1
  6367    6379    1
  6368    6370    1
  6368    6371    1
  6368    6373    1
  6368    6376    1
  6368    6377    1
  6368    6378    1
  6369    6374    1
  6369    6376    1
  6369    6377    1
  6369    6378    1
  6370    6372    1
  6370    6373    1
  6370    6375    1
  6371    6376    1
  6371    6377    1
  6372    6374    1
  6372    6375    1
  6373    6378    1
  6374    6376    1
  6374    6377    1
  6375    6378    1
  6379    6381    1
  6379    6382    1
  6381    6384    1
  6381    6385    1
  6381    6388    1
  6382    6386    1
  6382    6415    1
  6382    6417    1
  6383    6387    1
  6383    6388    1
  6383    6410    1
  6383    6416    1
  6384    6386    1
  6384    6415    1
  6385    6389    1
  6385    6390    1
  6385    6408    1
  6385    6411    1
  6385    6412    1
  6385    6417    1
  6386    6391    1
  6386    6392    1
  6386    6395    1
  6386    6409    1
  6386    6413    1
  6386    6414    1
  6386    6416    1
  6387    6389    1
  6387    6390    1
  6387    6408    1
  6387    6411    1
  6387    6412    1
  6387    6415    1
  6388    6393    1
  6388    6394    1
  6388    6408    1
  6388    6411    1
  6388    6413    1
  6388    6414    1
  6388    6417    1
  6389    6391    1
  6389    6392    1
  6389    6410    1
  6389    6412    1
  6389    6416    1
  6390    6395    1
  6390    6403    1
  6390    6409    1
  6390    6411    1
  6390    6416    1
  6391    6393    1
  6391    6394    1
  6391    6408    1
  6391    6410    1
  6391    6413    1
  6391    6414    1
  6391    6415    1
  6392    6396    1
  6392    6402    1
  6392    6404    1
  6392    6411    1
  6392    6413    1
  6392    6414    1
  6392    6415    1
  6393    6395    1
  6393    6403    1
  6393    6409    1
  6393    6410    1
  6393    6412    1
  6394    6397    1
  6394    6401    1
  6394    6405    1
  6394    6406    1
  6394    6407    1
  6394    6409    1
  6394    6410    1
  6394    6412    1
  6395    6398    1
  6395    6399    1
  6395    6400    1
  6395    6402    1
  6395    6404    1
  6395    6411    1
  6395    6412    1
  6396    6403    1
  6396    6409    1
  6396    6410    1
  6397    6402    1
  6397    6408    1
  6398    6401    1
  6399    6401    1
  6400    6401    1
  6401    6404    1
  6401    6408    1
  6402    6405    1
  6402    6406    1
  6402    6407    1
  6403    6408    1
  6408    6413    1
  6408    6414    1
  6409    6411    1
  6409    6412    1
  6410    6415    1
  6411    6413    1
  6411    6414    1
  6412    6415    1
  6418    6424    1
  6418    6425    1
  6418    6426    1
  6418    6428    1
  6418    6448    1
  6418    6450    1
  6418    6452    1
  6419    6423    1
  6419    6427    1
  6419    6451    1
  6420    6423    1
  6420    6427    1
  6420    6451    1
  6421    6423    1
  6421    6427    1
  6421    6451    1
  6422    6429    1
  6422    6447    1
  6422    6449    1
  6422    6453    1
  6422    6454    1
  6422    6485    1
  6423    6428    1
  6423    6448    1
  6423    6450    1
  6423    6452    1
  6424    6427    1
  6424    6451    1
  6425    6427    1
  6425    6451    1
  6426    6427    1
  6426    6451    1
  6427    6430    1
  6427    6431    1
  6427    6434    1
  6427    6452    1
  6427    6485    1
  6428    6432    1
  6428    6447    1
  6428    6449    1
  6428    6452    1
  6428    6484    1
  6428    6486    1
  6429    6433    1
  6429    6434    1
  6429    6442    1
  6429    6448    1
  6429    6451    1
  6429    6485    1
  6430    6432    1
  6430    6447    1
  6430    6450    1
  6431    6435    1
  6431    6436    1
  6431    6440    1
  6431    6443    1
  6431    6444    1
  6431    6449    1
  6431    6450    1
  6432    6437    1
  6432    6438    1
  6432    6441    1
  6432    6445    1
  6432    6446    1
  6432    6448    1
  6433    6435    1
  6433    6436    1
  6433    6440    1
  6433    6443    1
  6433    6444    1
  6433    6447    1
  6434    6439    1
  6434    6440    1
  6434    6443    1
  6434    6445    1
  6434    6446    1
  6434    6449    1
  6435    6437    1
  6435    6438    1
  6435    6442    1
  6435    6444    1
  6435    6448    1
  6436    6441    1
  6436    6443    1
  6436    6448    1
  6437    6439    1
  6437    6440    1
  6437    6442    1
  6437    6445    1
  6437    6446    1
  6437    6447    1
  6438    6443    1
  6438    6445    1
  6438    6446    1
  6438    6447    1
  6439    6441    1
  6439    6442    1
  6439    6444    1
  6440    6445    1
  6440    6446    1
  6441    6443    1
  6441    6444    1
  6442    6447    1
  6443    6445    1
  6443    6446    1
  6444    6447    1
  6448    6450    1
  6448    6451    1
  6450    6453    1
  6450    6454    1
  6450    6457    1
  6451    6455    1
  6451    6484    1
  6451    6486    1
  6452    6456    1
  6452    6457    1
  6452    6479    1
  6452    6485    1
  6453    6455    1
  6453    6484    1
  6454    6458    1
  6454    6459    1
  6454    6477    1
  6454    6480    1
  6454    6481    1
  6454    6486    1
  6455    6460    1
  6455    6461    1
  6455    6464    1
  6455    6478    1
  6455    6482    1
  6455    6483    1
  6455    6485    1
  6456    6458    1
  6456    6459    1
  6456    6477    1
  6456    6480    1
  6456    6481    1
  6456    6484    1
  6457    6462    1
  6457    6463    1
  6457    6477    1
  6457    6480    1
  6457    6482    1
  6457    6483    1
  6457    6486    1
  6458    6460    1
  6458    6461    1
  6458    6479    1
  6458    6481    1
  6458    6485    1
  6459    6464    1
  6459    6472    1
  6459    6478    1
  6459    6480    1
  6459    6485    1
  6460    6462    1
  6460    6463    1
  6460    6477    1
  6460    6479    1
  6460    6482    1
  6460    6483    1
  6460    6484    1
  6461    6465    1
  6461    6471    1
  6461    6473    1
  6461    6480    1
  6461    6482    1
  6461    6483    1
  6461    6484    1
  6462    6464    1
  6462    6472    1
  6462    6478    1
  6462    6479    1
  6462    6481    1
  6463    6466    1
  6463    6470    1
  6463    6474    1
  6463    6475    1
  6463    6476    1
  6463    6478    1
  6463    6479    1
  6463    6481    1
  6464    6467    1
  6464    6468    1
  6464    6469    1
  6464    6471    1
  6464    6473    1
  6464    6480    1
  6464    6481    1
  6465    6472    1
  6465    6478    1
  6465    6479    1
  6466    6471    1
  6466    6477    1
  6467    6470    1
  6468    6470    1
  6469    6470    1
  6470    6473    1
  6470    6477    1
  6471    6474    1
  6471    6475    1
  6471    6476    1
  6472    6477    1
  6477    6482    1
  6477    6483    1
  6478    6480    1
  6478    6481    1
  6479    6484    1
  6480    6482    1
  6480    6483    1
  6481    6484    1
  6487    6493    1
  6487    6494    1
  6487    6495    1
  6487    6497    1
  6487    6517    1
  6487    6519    1
  6487    6521    1
  6488    6492    1
  6488    6496    1
  6488    6520    1
  6489    6492    1
  6489    6496    1
  6489    6520    1
  6490    6492    1
  6490    6496    1
  6490    6520    1
  6491    6498    1
  6491    6516    1
  6491    6518    1
  6491    6522    1
  6491    6523    1
  6491    6554    1
  6492    6497    1
  6492    6517    1
  6492    6519    1
  6492    6521    1
  6493    6496    1
  6493    6520    1
  6494    6496    1
  6494    6520    1
  6495    6496    1
  6495    6520    1
  6496    6499    1
  6496    6500    1
  6496    6503    1
  6496    6521    1
  6496    6554    1
  6497    6501    1
  6497    6516    1
  6497    6518    1
  6497    6521    1
  6497    6553    1
  6497    6555    1
  6498    6502    1
  6498    6503    1
  6498    6511    1
  6498    6517    1
  6498    6520    1
  6498    6554    1
  6499    6501    1
  6499    6516    1
  6499    6519    1
  6500    6504    1
  6500    6505    1
  6500    6509    1
  6500    6512    1
  6500    6513    1
  6500    6518    1
  6500    6519    1
  6501    6506    1
  6501    6507    1
  6501    6510    1
  6501    6514    1
  6501    6515    1
  6501    6517    1
  6502    6504    1
  6502    6505    1
  6502    6509    1
  6502    6512    1
  6502    6513    1
  6502    6516    1
  6503    6508    1
  6503    6509    1
  6503    6512    1
  6503    6514    1
  6503    6515    1
  6503    6518    1
  6504    6506    1
  6504    6507    1
  6504    6511    1
  6504    6513    1
  6504    6517    1
  6505    6510    1
  6505    6512    1
  6505    6517    1
  6506    6508    1
  6506    6509    1
  6506    6511    1
  6506    6514    1
  6506    6515    1
  6506    6516    1
  6507    6512    1
  6507    6514    1
  6507    6515    1
  6507    6516    1
  6508    6510    1
  6508    6511    1
  6508    6513    1
  6509    6514    1
  6509    6515    1
  6510    6512    1
  6510    6513    1
  6511    6516    1
  6512    6514    1
  6512    6515    1
  6513    6516    1
  6517    6519    1
  6517    6520    1
  6519    6522    1
  6519    6523    1
  6519    6526    1
  6520    6524    1
  6520    6553    1
  6520    6555    1
  6521    6525    1
  6521    6526    1
  6521    6548    1
  6521    6554    1
  6522    6524    1
  6522    6553    1
  6523    6527    1
  6523    6528    1
  6523    6546    1
  6523    6549    1
  6523    6550    1
  6523    6555    1
  6524    6529    1
  6524    6530    1
  6524    6533    1
  6524    6547    1
  6524    6551    1
  6524    6552    1
  6524    6554    1
  6525    6527    1
  6525    6528    1
  6525    6546    1
  6525    6549    1
  6525    6550    1
  6525    6553    1
  6526    6531    1
  6526    6532    1
  6526    6546    1
  6526    6549    1
  6526    6551    1
  6526    6552    1
  6526    6555    1
  6527    6529    1
  6527    6530    1
  6527    6548    1
  6527    6550    1
  6527    6554    1
  6528    6533    1
  6528    6541    1
  6528    6547    1
  6528    6549    1
  6528    6554    1
  6529    6531    1
  6529    6532    1
  6529    6546    1
  6529    6548    1
  6529    6551    1
  6529    6552    1
  6529    6553    1
  6530    6534    1
  6530    6540    1
  6530    6542    1
  6530    6549    1
  6530    6551    1
  6530    6552    1
  6530    6553    1
  6531    6533    1
  6531    6541    1
  6531    6547    1
  6531    6548    1
  6531    6550    1
  6532    6535    1
  6532    6539    1
  6532    6543    1
  6532    6544    1
  6532    6545    1
  6532    6547    1
  6532    6548    1
  6532    6550    1
  6533    6536    1
  6533    6537    1
  6533    6538    1
  6533    6540    1
  6533    6542    1
  6533    6549    1
  6533    6550    1
  6534    6541    1
  6534    6547    1
  6534    6548    1
  6535    6540    1
  6535    6546    1
  6536    6539    1
  6537    6539    1
  6538    6539    1
  6539    6542    1
  6539    6546    1
  6540    6543    1
  6540    6544    1
  6540    6545    1
  6541    6546    1
  6546    6551    1
  6546    6552    1
  6547    6549    1
  6547    6550    1
  6548    6553    1
  6549    6551    1
  6549    6552    1
  6550    6553    1
  6556    6562    1
  6556    6563    1
  6556    6564    1
  6556    6566    1
  6556    6586    1
  6556    6588    1
  6556    6590    1
  6557    6561    1
  6557    6565    1
  6557    6589    1
  6558    6561    1
  6558    6565    1
  6558    6589    1
  6559    6561    1
  6559    6565    1
  6559    6589    1
  6560    6567    1
  6560    6585    1
  6560    6587    1
  6560    6591    1
  6560    6592    1
  6560    6623    1
  6561    6566    1
  6561    6586    1
  6561    6588    1
  6561    6590    1
  6562    6565    1
  6562    6589    1
  6563    6565    1
  6563    6589    1
  6564    6565    1
  6564    6589    1
  6565    6568    1
  6565    6569    1
  6565    6572    1
  6565    6590    1
  6565    6623    1
  6566    6570    1
  6566    6585    1
  6566    6587    1
  6566    6590    1
  6566    6622    1
  6566    6624    1
  6567    6571    1
  6567    6572    1
  6567    6580    1
  6567    6586    1
  6567    6589    1
  6567    6623    1
  6568    6570    1
  6568    6585    1
  6568    6588    1
  6569    6573    1
  6569    6574    1
  6569    6578    1
  6569    6581    1
  6569    6582    1
  6569    6587    1
  6569    6588    1
  6570    6575    1
  6570    6576    1
  6570    6579    1
  6570    6583    1
  6570    6584    1
  6570    6586    1
  6571    6573    1
  6571    6574    1
  6571    6578    1
  6571    6581    1
  6571    6582    1
  6571    6585    1
  6572    6577    1
  6572    6578    1
  6572    6581    1
  6572    6583    1
  6572    6584    1
  6572    6587    1
  6573    6575    1
  6573    6576    1
  6573    6580    1
  6573    6582    1
  6573    6586    1
  6574    6579    1
  6574    6581    1
  6574    6586    1
  6575    6577    1
  6575    6578    1
  6575    6580    1
  6575    6583    1
  6575    6584    1
  6575    6585    1
  6576    6581    1
  6576    6583    1
  6576    6584    1
  6576    6585    1
  6577    6579    1
  6577    6580    1
  6577    6582    1
  6578    6583    1
  6578    6584    1
  6579    6581    1
  6579    6582    1
  6580    6585    1
  6581    6583    1
  6581    6584    1
  6582    6585    1
  6586    6588    1
  6586    6589    1
  6588    6591    1
  6588    6592    1
  6588    6595    1
  6589    6593    1
  6589    6622    1
  6589    6624    1
  6590    6594    1
  6590    6595    1
  6590    6617    1
  6590    6623    1
  6591    6593    1
  6591    6622    1
  6592    6596    1
  6592    6597    1
  6592    6615    1
  6592    6618    1
  6592    6619    1
  6592    6624    1
  6593    6598    1
  6593    6599    1
  6593    6602    1
  6593    6616    1
  6593    6620    1
  6593    6621    1
  6593    6623    1
  6594    6596    1
  6594    6597    1
  6594    6615    1
  6594    6618    1
  6594    6619    1
  6594    6622    1
  6595    6600    1
  6595    6601    1
  6595    6615    1
  6595    6618    1
  6595    6620    1
  6595    6621    1
  6595    6624    1
  6596    6598    1
  6596    6599    1
  6596    6617    1
  6596    6619    1
  6596    6623    1
  6597    6602    1
  6597    6610    1
  6597    6616    1
  6597    6618    1
  6597    6623    1
  6598    6600    1
  6598    6601    1
  6598    6615    1
  6598    6617    1
  6598    6620    1
  6598    6621    1
  6598    6622    1
  6599    6603    1
  6599    6609    1
  6599    6611    1
  6599    6618    1
  6599    6620    1
  6599    6621    1
  6599    6622    1
  6600    6602    1
  6600    6610    1
  6600    6616    1
  6600    6617    1
  6600    6619    1
  6601    6604    1
  6601    6608    1
  6601    6612    1
  6601    6613    1
  6601    6614    1
  6601    6616    1
  6601    6617    1
  6601    6619    1
  6602    6605    1
  6602    6606    1
  6602    6607    1
  6602    6609    1
  6602    6611    1
  6602    6618    1
  6602    6619    1
  6603    6610    1
  6603    6616    1
  6603    6617    1
  6604    6609    1
  6604    6615    1
  6605    6608    1
  6606    6608    1
  6607    6608    1
  6608    6611    1
  6608    6615    1
  6609    6612    1
  6609    6613    1
  6609    6614    1
  6610    6615    1
  6615    6620    1
  6615    6621    1
  6616    6618    1
  6616    6619    1
  6617    6622    1
  6618    6620    1
  6618    6621    1
  6619    6622    1
  6625    6631    1
  6625    6632    1
  6625    6633    1
  6625    6635    1
  6625    6655    1
  6625    6657    1
  6625    6659    1
  6626    6630    1
  6626    6634    1
  6626    6658    1
  6627    6630    1
  6627    6634    1
  6627    6658    1
  6628    6630    1
  6628    6634    1
  6628    6658    1
  6629    6636    1
  6629    6654    1
  6629    6656    1
  6629    6660    1
  6629    6661    1
  6629    6692    1
  6630    6635    1
  6630    6655    1
  6630    6657    1
  6630    6659    1
  6631    6634    1
  6631    6658    1
  6632    6634    1
  6632    6658    1
  6633    6634    1
  6633    6658    1
  6634    6637    1
  6634    6638    1
  6634    6641    1
  6634    6659    1
  6634    6692    1
  6635    6639    1
  6635    6654    1
  6635    6656    1
  6635    6659    1
  6635    6691    1
  6635    6693    1
  6636    6640    1
  6636    6641    1
  6636    6649    1
  6636    6655    1
  6636    6658    1
  6636    6692    1
  6637    6639    1
  6637    6654    1
  6637    6657    1
  6638    6642    1
  6638    6643    1
  6638    6647    1
  6638    6650    1
  6638    6651    1
  6638    6656    1
  6638    6657    1
  6639    6644    1
  6639    6645    1
  6639    6648    1
  6639    6652    1
  6639    6653    1
  6639    6655    1
  6640    6642    1
  6640    6643    1
  6640    6647    1
  6640    6650    1
  6640    6651    1
  6640    6654    1
  6641    6646    1
  6641    6647    1
  6641    6650    1
  6641    6652    1
  6641    6653    1
  6641    6656    1
  6642    6644    1
  6642    6645    1
  6642    6649    1
  6642    6651    1
  6642    6655    1
  6643    6648    1
  6643    6650    1
  6643    6655    1
  6644    6646    1
  6644    6647    1
  6644    6649    1
  6644    6652    1
  6644    6653    1
  6644    6654    1
  6645    6650    1
  6645    6652    1
  6645    6653    1
  6645    6654    1
  6646    6648    1
  6646    6649    1
  6646    6651    1
  6647    6652    1
  6647    6653    1
  6648    6650    1
  6648    6651    1
  6649    6654    1
  6650    6652    1
  6650    6653    1
  6651    6654    1
  6655    6657    1
  6655    6658    1
  6657    6660    1
  6657    6661    1
  6657    6664    1
  6658    6662    1
  6658    6691    1
  6658    6693    1
  6659    6663    1
  6659    6664    1
  6659    6686    1
  6659    6692    1
  6660    6662    1
  6660    6691    1
  6661    6665    1
  6661    6666    1
  6661    6684    1
  6661    6687    1
  6661    6688    1
  6661    6693    1
  6662    6667    1
  6662    6668    1
  6662    6671    1
  6662    6685    1
  6662    6689    1
  6662    6690    1
  6662    6692    1
  6663    6665    1
  6663    6666    1
  6663    6684    1
  6663    6687    1
  6663    6688    1
  6663    6691    1
  6664    6669    1
  6664    6670    1
  6664    6684    1
  6664    6687    1
  6664    6689    1
  6664    6690    1
  6664    6693    1
  6665    6667    1
  6665    6668    1
  6665    6686    1
  6665    6688    1
  6665    6692    1
  6666    6671    1
  6666    6679    1
  6666    6685    1
  6666    6687    1
  6666    6692    1
  6667    6669    1
  6667    6670    1
  6667    6684    1
  6667    6686    1
  6667    6689    1
  6667    6690    1
  6667    6691    1
  6668    6672    1
  6668    6678    1
  6668    6680    1
  6668    6687    1
  6668    6689    1
  6668    6690    1
  6668    6691    1
  6669    6671    1
  6669    6679    1
  6669    6685    1
  6669    6686    1
  6669    6688    1
  6670    6673    1
  6670    6677    1
  6670    6681    1
  6670    6682    1
  6670    6683    1
  6670    6685    1
  6670    6686    1
  6670    6688    1
  6671    6674    1
  6671    6675    1
  6671    6676    1
  6671    6678    1
  6671    6680    1
  6671    6687    1
  6671    6688    1
  6672    6679    1
  6672    6685    1
  6672    6686    1
  6673    6678    1
  6673    6684    1
  6674    6677    1
  6675    6677    1
  6676    6677    1
  6677    6680    1
  6677    6684    1
  6678    6681    1
  6678    6682    1
  6678    6683    1
  6679    6684    1
  6684    6689    1
  6684    6690    1
  6685    6687    1
  6685    6688    1
  6686    6691    1
  6687    6689    1
  6687    6690    1
  6688    6691    1
  6694    6700    1
  6694    6701    1
  6694    6702    1
  6694    6704    1
  6694    6724    1
  6694    6726    1
  6694    6728    1
  6695    6699    1
  6695    6703    1
  6695    6727    1
  6696    6699    1
  6696    6703    1
  6696    6727    1
  6697    6699    1
  6697    6703    1
  6697    6727    1
  6698    6705    1
  6698    6723    1
  6698    6725    1
  6698    6729    1
  6698    6730    1
  6698    6761    1
  6699    6704    1
  6699    6724    1
  6699    6726    1
  6699    6728    1
  6700    6703    1
  6700    6727    1
  6701    6703    1
  6701    6727    1
  6702    6703    1
  6702    6727    1
  6703    6706    1
  6703    6707    1
  6703    6710    1
  6703    6728    1
  6703    6761    1
  6704    6708    1
  6704    6723    1
  6704    6725    1
  6704    6728    1
  6704    6760    1
  6704    6762    1
  6705    6709    1
  6705    6710    1
  6705    6718    1
  6705    6724    1
  6705    6727    1
  6705    6761    1
  6706    6708    1
  6706    6723    1
  6706    6726    1
  6707    6711    1
  6707    6712    1
  6707    6716    1
  6707    6719    1
  6707    6720    1
  6707    6725    1
  6707    6726    1
  6708    6713    1
  6708    6714    1
  6708    6717    1
  6708    6721    1
  6708    6722    1
  6708    6724    1
  6709    6711    1
  6709    6712    1
  6709    6716    1
  6709    6719    1
  6709    6720    1
  6709    6723    1
  6710    6715    1
  6710    6716    1
  6710    6719    1
  6710    6721    1
  6710    6722    1
  6710    6725    1
  6711    6713    1
  6711    6714    1
  6711    6718    1
  6711    6720    1
  6711    6724    1
  6712    6717    1
  6712    6719    1
  6712    6724    1
  6713    6715    1
  6713    6716    1
  6713    6718    1
  6713    6721    1
  6713    6722    1
  6713    6723    1
  6714    6719    1
  6714    6721    1
  6714    6722    1
  6714    6723    1
  6715    6717    1
  6715    6718    1
  6715    6720    1
  6716    6721    1
  6716    6722    1
  6717    6719    1
  6717    6720    1
  6718    6723    1
  6719    6721    1
  6719    6722    1
  6720    6723    1
  6724    6726    1
  6724    6727    1
  6726    6729    1
  6726    6730    1
  6726    6733    1
  6727    6731    1
  6727    6760    1
  6727    6762    1
  6728    6732    1
  6728    6733    1
  6728    6755    1
  6728    6761    1
  6729    6731    1
  6729    6760    1
  6730    6734    1
  6730    6735    1
  6730    6753    1
  6730    6756    1
  6730    6757    1
  6730    6762    1
  6731    6736    1
  6731    6737    1
  6731    6740    1
  6731    6754    1
  6731    6758    1
  6731    6759    1
  6731    6761    1
  6732    6734    1
  6732    6735    1
  6732    6753    1
  6732    6756    1
  6732    6757    1
  6732    6760    1
  6733    6738    1
  6733    6739    1
  6733    6753    1
  6733    6756    1
  6733    6758    1
  6733    6759    1
  6733    6762    1
  6734    6736    1
  6734    6737    1
  6734    6755    1
  6734    6757    1
  6734    6761    1
  6735    6740    1
  6735    6748    1
  6735    6754    1
  6735    6756    1
  6735    6761    1
  6736    6738    1
  6736    6739    1
  6736    6753    1
  6736    6755    1
  6736    6758    1
  6736    6759    1
  6736    6760    1
  6737    6741    1
  6737    6747    1
  6737    6749    1
  6737    6756    1
  6737    6758    1
  6737    6759    1
  6737    6760    1
  6738    6740    1
  6738    6748    1
  6738    6754    1
  6738    6755    1
  6738    6757    1
  6739    6742    1
  6739    6746    1
  6739    6750    1
  6739    6751    1
  6739    6752    1
  6739    6754    1
  6739    6755    1
  6739    6757    1
  6740    6743    1
  6740    6744    1
  6740    6745    1
  6740    6747    1
  6740    6749    1
  6740    6756    1
  6740    6757    1
  6741    6748    1
  6741    6754    1
  6741    6755    1
  6742    6747    1
  6742    6753    1
  6743    6746    1
  6744    6746    1
  6745    6746    1
  6746    6749    1
  6746    6753    1
  6747    6750    1
  6747    6751    1
  6747    6752    1
  6748    6753    1
  6753    6758    1
  6753    6759    1
  6754    6756    1
  6754    6757    1
  6755    6760    1
  6756    6758    1
  6756    6759    1
  6757    6760    1
  6763    6769    1
  6763    6770    1
  6763    6771    1
  6763    6773    1
  6763    6793    1
  6763    6795    1
  6763    6797    1
  6764    6768    1
  6764    6772    1
  6764    6796    1
  6765    6768    1
  6765    6772    1
  6765    6796    1
  6766    6768    1
  6766    6772    1
  6766    6796    1
  6767    6774    1
  6767    6792    1
  6767    6794    1
  6767    6798    1
  6767    6799    1
  6767    6830    1
  6768    6773    1
  6768    6793    1
  6768    6795    1
  6768    6797    1
  6769    6772    1
  6769    6796    1
  6770    6772    1
  6770    6796    1
  6771    6772    1
  6771    6796    1
  6772    6775    1
  6772    6776    1
  6772    6779    1
  6772    6797    1
  6772    6830    1
  6773    6777    1
  6773    6792    1
  6773    6794    1
  6773    6797    1
  6773    6829    1
  6773    6831    1
  6774    6778    1
  6774    6779    1
  6774    6787    1
  6774    6793    1
  6774    6796    1
  6774    6830    1
  6775    6777    1
  6775    6792    1
  6775    6795    1
  6776    6780    1
  6776    6781    1
  6776    6785    1
  6776    6788    1
  6776    6789    1
  6776    6794    1
  6776    6795    1
  6777    6782    1
  6777    6783    1
  6777    6786    1
  6777    6790    1
  6777    6791    1
  6777    6793    1
  6778    6780    1
  6778    6781    1
  6778    6785    1
  6778    6788    1
  6778    6789    1
  6778    6792    1
  6779    6784    1
  6779    6785    1
  6779    6788    1
  6779    6790    1
  6779    6791    1
  6779    6794    1
  6780    6782    1
  6780    6783    1
  6780    6787    1
  6780    6789    1
  6780    6793    1
  6781    6786    1
  6781    6788    1
  6781    6793    1
  6782    6784    1
  6782    6785    1
  6782    6787    1
  6782    6790    1
  6782    6791    1
  6782    6792    1
  6783    6788    1
  6783    6790    1
  6783    6791    1
  6783    6792    1
  6784    6786    1
  6784    6787    1
  6784    6789    1
  6785    6790    1
  6785    6791    1
  6786    6788    1
  6786    6789    1
  6787    6792    1
  6788    6790    1
  6788    6791    1
  6789    6792    1
  6793    6795    1
  6793    6796    1
  6795    6798    1
  6795    6799    1
  6795    6802    1
  6796    6800    1
  6796    6829    1
  6796    6831    1
  6797    6801    1
  6797    6802    1
  6797    6824    1
  6797    6830    1
  6798    6800    1
  6798    6829    1
  6799    6803    1
  6799    6804    1
  6799    6822    1
  6799    6825    1
  6799    6826    1
  6799    6831    1
  6800    6805    1
  6800    6806    1
  6800    6809    1
  6800    6823    1
  6800    6827    1
  6800    6828    1
  6800    6830    1
  6801    6803    1
  6801    6804    1
  6801    6822    1
  6801    6825    1
  6801    6826    1
  6801    6829    1
  6802    6807    1
  6802    6808    1
  6802    6822    1
  6802    6825    1
  6802    6827    1
  6802    6828    1
  6802    6831    1
  6803    6805    1
  6803    6806    1
  6803    6824    1
  6803    6826    1
  6803    6830    1
  6804    6809    1
  6804    6817    1
  6804    6823    1
  6804    6825    1
  6804    6830    1
  6805    6807    1
  6805    6808    1
  6805    6822    1
  6805    6824    1
  6805    6827    1
  6805    6828    1
  6805    6829    1
  6806    6810    1
  6806    6816    1
  6806    6818    1
  6806    6825    1
  6806    6827    1
  6806    6828    1
  6806    6829    1
  6807    6809    1
  6807    6817    1
  6807    6823    1
  6807    6824    1
  6807    6826    1
  6808    6811    1
  6808    6815    1
  6808    6819    1
  6808    6820    1
  6808    6821    1
  6808    6823    1
  6808    6824    1
  6808    6826    1
  6809    6812    1
  6809    6813    1
  6809    6814    1
  6809    6816    1
  6809    6818    1
  6809    6825    1
  6809    6826    1
  6810    6817    1
  6810    6823    1
  6810    6824    1
  6811    6816    1
  6811    6822    1
  6812    6815    1
  6813    6815    1
  6814    6815    1
  6815    6818    1
  6815    6822    1
  6816    6819    1
  6816    6820    1
  6816    6821    1
  6817    6822    1
  6822    6827    1
  6822    6828    1
  6823    6825    1
  6823    6826    1
  6824    6829    1
  6825    6827    1
  6825    6828    1
  6826    6829    1
  6832    6838    1
  6832    6839    1
  6832    6840    1
  6832    6842    1
  6832    6862    1
  6832    6864    1
  6832    6866    1
  6833    6837    1
  6833    6841    1
  6833    6865    1
  6834    6837    1
  6834    6841    1
  6834    6865    1
  6835    6837    1
  6835    6841    1
  6835    6865    1
  6836    6843    1
  6836    6861    1
  6836    6863    1
  6836    6867    1
  6836    6868    1
  6836    6899    1
  6837    6842    1
  6837    6862    1
  6837    6864    1
  6837    6866    1
  6838    6841    1
  6838    6865    1
  6839    6841    1
  6839    6865    1
  6840    6841    1
  6840    6865    1
  6841    6844    1
  6841    6845    1
  6841    6848    1
  6841    6866    1
  6841    6899    1
  6842    6846    1
  6842    6861    1
  6842    6863    1
  6842    6866    1
  6842    6898    1
  6842    6900    1
  6843    6847    1
  6843    6848    1
  6843    6856    1
  6843    6862    1
  6843    6865    1
  6843    6899    1
  6844    6846    1
  6844    6861    1
  6844    6864    1
  6845    6849    1
  6845    6850    1
  6845    6854    1
  6845    6857    1
  6845    6858    1
  6845    6863    1
  6845    6864    1
  6846    6851    1
  6846    6852    1
  6846    6855    1
  6846    6859    1
  6846    6860    1
  6846    6862    1
  6847    6849    1
  6847    6850    1
  6847    6854    1
  6847    6857    1
  6847    6858    1
  6847    6861    1
  6848    6853    1
  6848    6854    1
  6848    6857    1
  6848    6859    1
  6848    6860    1
  6848    6863    1
  6849    6851    1
  6849    6852    1
  6849    6856    1
  6849    6858    1
  6849    6862    1
  6850    6855    1
  6850    6857    1
  6850    6862    1
  6851    6853    1
  6851    6854    1
  6851    6856    1
  6851    6859    1
  6851    6860    1
  6851    6861    1
  6852    6857    1
  6852    6859    1
  6852    6860    1
  6852    6861    1
  6853    6855    1
  6853    6856    1
  6853    6858    1
  6854    6859    1
  6854    6860    1
  6855    6857    1
  6855    6858    1
  6856    6861    1
  6857    6859    1
  6857    6860    1
  6858    6861    1
  6862    6864    1
  6862    6865    1
  6864    6867    1
  6864    6868    1
  6864    6871    1
  6865    6869    1
  6865    6898    1
  6865    6900    1
  6866    6870    1
  6866    6871    1
  6866    6893    1
  6866    6899    1
  6867    6869    1
  6867    6898    1
  6868    6872    1
  6868    6873    1
  6868    6891    1
  6868    6894    1
  6868    6895    1
  6868    6900    1
  6869    6874    1
  6869    6875    1
  6869    6878    1
  6869    6892    1
  6869    6896    1
  6869    6897    1
  6869    6899    1
  6870    6872    1
  6870    6873    1
  6870    6891    1
  6870    6894    1
  6870    6895    1
  6870    6898    1
  6871    6876    1
  6871    6877    1
  6871    6891    1
  6871    6894    1
  6871    6896    1
  6871    6897    1
  6871    6900    1
  6872    6874    1
  6872    6875    1
  6872    6893    1
  6872    6895    1
  6872    6899    1
  6873    6878    1
  6873    6886    1
  6873    6892    1
  6873    6894    1
  6873    6899    1
  6874    6876    1
  6874    6877    1
  6874    6891    1
  6874    6893    1
  6874    6896    1
  6874    6897    1
  6874    6898    1
  6875    6879    1
  6875    6885    1
  6875    6887    1
  6875    6894    1
  6875    6896    1
  6875    6897    1
  6875    6898    1
  6876    6878    1
  6876    6886    1
  6876    6892    1
  6876    6893    1
  6876    6895    1
  6877    6880    1
  6877    6884    1
  6877    6888    1
  6877    6889    1
  6877    6890    1
  6877    6892    1
  6877    6893    1
  6877    6895    1
  6878    6881    1
  6878    6882    1
  6878    6883    1
  6878    6885    1
  6878    6887    1
  6878    6894    1
  6878    6895    1
  6879    6886    1
  6879    6892    1
  6879    6893    1
  6880    6885    1
  6880    6891    1
  6881    6884    1
  6882    6884    1
  6883    6884    1
  6884    6887    1
  6884    6891    1
  6885    6888    1
  6885    6889    1
  6885    6890    1
  6886    6891    1
  6891    6896    1
  6891    6897    1
  6892    6894    1
  6892    6895    1
  6893    6898    1
  6894    6896    1
  6894    6897    1
  6895    6898    1

[ bonds ]
;   ai     aj funct  r               k
     1       2       1       1.09620000e-01   2.88905200e+05 
     1       3       1       1.09620000e-01   2.88905200e+05 
     1       4       1       1.09620000e-01   2.88905200e+05 
     1       5       1       1.53720000e-01   1.90489152e+05 
     5       6       1       1.53720000e-01   1.90489152e+05 
     5       10      1       1.51510000e-01   2.03844480e+05 
     5       34      1       1.51510000e-01   2.03844480e+05 
     6       7       1       1.09620000e-01   2.88905200e+05 
     6       8       1       1.09620000e-01   2.88905200e+05 
     6       9       1       1.09620000e-01   2.88905200e+05 
     10      11      1       1.40560000e-01   2.89591376e+05 
     10      31      1       1.39860000e-01   2.96436400e+05 
     11      12      1       1.40560000e-01   2.89591376e+05 
     11      33      1       1.48290000e-01   2.25408816e+05 
     12      13      1       1.08600000e-01   3.01825392e+05 
     12      14      1       1.39860000e-01   2.96436400e+05 
     14      15      1       1.51590000e-01   2.03342400e+05 
     14      30      1       1.39860000e-01   2.96436400e+05 
     15      16      1       1.09470000e-01   2.90754528e+05 
     15      17      1       1.55780000e-01   1.78983152e+05 
     15      25      1       1.54250000e-01   1.87443200e+05 
     17      18      1       1.09470000e-01   2.90754528e+05 
     17      19      1       1.54250000e-01   1.87443200e+05 
     17      30      1       1.51590000e-01   2.03342400e+05 
     19      20      1       1.09540000e-01   2.89892624e+05 
     19      21      1       1.54250000e-01   1.87443200e+05 
     19      27      1       1.54830000e-01   1.84179680e+05 
     21      22      1       1.09470000e-01   2.90754528e+05 
     21      23      1       1.55780000e-01   1.78983152e+05 
     23      24      1       1.09470000e-01   2.90754528e+05 
     25      23      1       1.54250000e-01   1.87443200e+05 
     25      26      1       1.09540000e-01   2.89892624e+05 
     25      27      1       1.54830000e-01   1.84179680e+05 
     27      28      1       1.09540000e-01   2.89892624e+05 
     27      29      1       1.09540000e-01   2.89892624e+05 
     30      31      1       1.39860000e-01   2.96436400e+05 
     31      32      1       1.08600000e-01   3.01825392e+05 
     33      34      1       1.40560000e-01   2.89591376e+05 
     33      68      1       1.40560000e-01   2.89591376e+05 
     34      35      1       1.39860000e-01   2.96436400e+05 
     35      36      1       1.08600000e-01   3.01825392e+05 
     35      37      1       1.39860000e-01   2.96436400e+05 
     37      38      1       1.51590000e-01   2.03342400e+05 
     37      67      1       1.39860000e-01   2.96436400e+05 
     38      39      1       1.09470000e-01   2.90754528e+05 
     38      40      1       1.55780000e-01   1.78983152e+05 
     38      62      1       1.54250000e-01   1.87443200e+05 
     40      41      1       1.09470000e-01   2.90754528e+05 
     40      42      1       1.54250000e-01   1.87443200e+05 
     40      67      1       1.51590000e-01   2.03342400e+05 
     42      43      1       1.09540000e-01   2.89892624e+05 
     42      44      1       1.54250000e-01   1.87443200e+05 
     42      64      1       1.54830000e-01   1.84179680e+05 
     44      45      1       1.09470000e-01   2.90754528e+05 
     44      46      1       1.51590000e-01   2.03342400e+05 
     44      60      1       1.55780000e-01   1.78983152e+05 
     46      47      1       1.39860000e-01   2.96436400e+05 
     46      55      1       1.39860000e-01   2.96436400e+05 
     47      48      1       1.39860000e-01   2.96436400e+05 
     47      60      1       1.51590000e-01   2.03342400e+05 
     48      49      1       1.51470000e-01   2.04103888e+05 
     48      53      1       1.39860000e-01   2.96436400e+05 
     49      50      1       1.09620000e-01   2.88905200e+05 
     49      51      1       1.09620000e-01   2.88905200e+05 
     49      52      1       1.09620000e-01   2.88905200e+05 
     53      54      1       1.39860000e-01   2.96436400e+05 
     53      918     1       1.51590000e-01   2.03342400e+05 
     54      55      1       1.39860000e-01   2.96436400e+05 
     54      920     1       1.51590000e-01   2.03342400e+05 
     55      56      1       1.51470000e-01   2.04103888e+05 
     56      57      1       1.09620000e-01   2.88905200e+05 
     56      58      1       1.09620000e-01   2.88905200e+05 
     56      59      1       1.09620000e-01   2.88905200e+05 
     60      61      1       1.09470000e-01   2.90754528e+05 
     60      62      1       1.54250000e-01   1.87443200e+05 
     62      63      1       1.09540000e-01   2.89892624e+05 
     62      64      1       1.54830000e-01   1.84179680e+05 
     64      65      1       1.09540000e-01   2.89892624e+05 
     64      66      1       1.09540000e-01   2.89892624e+05 
     67      68      1       1.39860000e-01   2.96436400e+05 
     68      69      1       1.08600000e-01   3.01825392e+05 
     70      71      1       1.09620000e-01   2.88905200e+05 
     70      72      1       1.09620000e-01   2.88905200e+05 
     70      73      1       1.09620000e-01   2.88905200e+05 
     70      74      1       1.53720000e-01   1.90489152e+05 
     74      75      1       1.53720000e-01   1.90489152e+05 
     74      79      1       1.51510000e-01   2.03844480e+05 
     74      103     1       1.51510000e-01   2.03844480e+05 
     75      76      1       1.09620000e-01   2.88905200e+05 
     75      77      1       1.09620000e-01   2.88905200e+05 
     75      78      1       1.09620000e-01   2.88905200e+05 
     79      80      1       1.40560000e-01   2.89591376e+05 
     79      100     1       1.39860000e-01   2.96436400e+05 
     80      81      1       1.40560000e-01   2.89591376e+05 
     80      102     1       1.48290000e-01   2.25408816e+05 
     81      82      1       1.08600000e-01   3.01825392e+05 
     81      83      1       1.39860000e-01   2.96436400e+05 
     83      84      1       1.51590000e-01   2.03342400e+05 
     83      99      1       1.39860000e-01   2.96436400e+05 
     84      85      1       1.09470000e-01   2.90754528e+05 
     84      86      1       1.55780000e-01   1.78983152e+05 
     84      94      1       1.54250000e-01   1.87443200e+05 
     86      87      1       1.09470000e-01   2.90754528e+05 
     86      88      1       1.54250000e-01   1.87443200e+05 
     86      99      1       1.51590000e-01   2.03342400e+05 
     88      89      1       1.09540000e-01   2.89892624e+05 
     88      90      1       1.54250000e-01   1.87443200e+05 
     88      96      1       1.54830000e-01   1.84179680e+05 
     90      91      1       1.09470000e-01   2.90754528e+05 
     90      92      1       1.55780000e-01   1.78983152e+05 
     92      93      1       1.09470000e-01   2.90754528e+05 
     94      92      1       1.54250000e-01   1.87443200e+05 
     94      95      1       1.09540000e-01   2.89892624e+05 
     94      96      1       1.54830000e-01   1.84179680e+05 
     96      97      1       1.09540000e-01   2.89892624e+05 
     96      98      1       1.09540000e-01   2.89892624e+05 
     99      100     1       1.39860000e-01   2.96436400e+05 
     100     101     1       1.08600000e-01   3.01825392e+05 
     102     103     1       1.40560000e-01   2.89591376e+05 
     102     137     1       1.40560000e-01   2.89591376e+05 
     103     104     1       1.39860000e-01   2.96436400e+05 
     104     105     1       1.08600000e-01   3.01825392e+05 
     104     106     1       1.39860000e-01   2.96436400e+05 
     106     107     1       1.51590000e-01   2.03342400e+05 
     106     136     1       1.39860000e-01   2.96436400e+05 
     107     108     1       1.09470000e-01   2.90754528e+05 
     107     109     1       1.55780000e-01   1.78983152e+05 
     107     131     1       1.54250000e-01   1.87443200e+05 
     109     110     1       1.09470000e-01   2.90754528e+05 
     109     111     1       1.54250000e-01   1.87443200e+05 
     109     136     1       1.51590000e-01   2.03342400e+05 
     111     112     1       1.09540000e-01   2.89892624e+05 
     111     113     1       1.54250000e-01   1.87443200e+05 
     111     133     1       1.54830000e-01   1.84179680e+05 
     113     114     1       1.09470000e-01   2.90754528e+05 
     113     115     1       1.51590000e-01   2.03342400e+05 
     113     129     1       1.55780000e-01   1.78983152e+05 
     115     116     1       1.39860000e-01   2.96436400e+05 
     115     124     1       1.39860000e-01   2.96436400e+05 
     116     117     1       1.39860000e-01   2.96436400e+05 
     116     129     1       1.51590000e-01   2.03342400e+05 
     117     118     1       1.51470000e-01   2.04103888e+05 
     117     122     1       1.39860000e-01   2.96436400e+05 
     118     119     1       1.09620000e-01   2.88905200e+05 
     118     120     1       1.09620000e-01   2.88905200e+05 
     118     121     1       1.09620000e-01   2.88905200e+05 
     122     123     1       1.39860000e-01   2.96436400e+05 
     123     124     1       1.39860000e-01   2.96436400e+05 
     124     125     1       1.51470000e-01   2.04103888e+05 
     125     126     1       1.09620000e-01   2.88905200e+05 
     125     127     1       1.09620000e-01   2.88905200e+05 
     125     128     1       1.09620000e-01   2.88905200e+05 
     129     130     1       1.09470000e-01   2.90754528e+05 
     129     131     1       1.54250000e-01   1.87443200e+05 
     131     132     1       1.09540000e-01   2.89892624e+05 
     131     133     1       1.54830000e-01   1.84179680e+05 
     133     134     1       1.09540000e-01   2.89892624e+05 
     133     135     1       1.09540000e-01   2.89892624e+05 
     136     137     1       1.39860000e-01   2.96436400e+05 
     137     138     1       1.08600000e-01   3.01825392e+05 
     139     140     1       1.09620000e-01   2.88905200e+05 
     139     141     1       1.09620000e-01   2.88905200e+05 
     139     142     1       1.09620000e-01   2.88905200e+05 
     139     143     1       1.53720000e-01   1.90489152e+05 
     143     144     1       1.53720000e-01   1.90489152e+05 
     143     148     1       1.51510000e-01   2.03844480e+05 
     143     172     1       1.51510000e-01   2.03844480e+05 
     144     145     1       1.09620000e-01   2.88905200e+05 
     144     146     1       1.09620000e-01   2.88905200e+05 
     144     147     1       1.09620000e-01   2.88905200e+05 
     148     149     1       1.40560000e-01   2.89591376e+05 
     148     169     1       1.39860000e-01   2.96436400e+05 
     149     150     1       1.40560000e-01   2.89591376e+05 
     149     171     1       1.48290000e-01   2.25408816e+05 
     150     151     1       1.08600000e-01   3.01825392e+05 
     150     152     1       1.39860000e-01   2.96436400e+05 
     152     153     1       1.51590000e-01   2.03342400e+05 
     152     168     1       1.39860000e-01   2.96436400e+05 
     153     154     1       1.09470000e-01   2.90754528e+05 
     153     155     1       1.55780000e-01   1.78983152e+05 
     153     163     1       1.54250000e-01   1.87443200e+05 
     155     156     1       1.09470000e-01   2.90754528e+05 
     155     157     1       1.54250000e-01   1.87443200e+05 
     155     168     1       1.51590000e-01   2.03342400e+05 
     157     158     1       1.09540000e-01   2.89892624e+05 
     157     159     1       1.54250000e-01   1.87443200e+05 
     157     165     1       1.54830000e-01   1.84179680e+05 
     159     160     1       1.09470000e-01   2.90754528e+05 
     159     161     1       1.55780000e-01   1.78983152e+05 
     161     162     1       1.09470000e-01   2.90754528e+05 
     163     161     1       1.54250000e-01   1.87443200e+05 
     163     164     1       1.09540000e-01   2.89892624e+05 
     163     165     1       1.54830000e-01   1.84179680e+05 
     165     166     1       1.09540000e-01   2.89892624e+05 
     165     167     1       1.09540000e-01   2.89892624e+05 
     168     169     1       1.39860000e-01   2.96436400e+05 
     169     170     1       1.08600000e-01   3.01825392e+05 
     171     172     1       1.40560000e-01   2.89591376e+05 
     171     206     1       1.40560000e-01   2.89591376e+05 
     172     173     1       1.39860000e-01   2.96436400e+05 
     173     174     1       1.08600000e-01   3.01825392e+05 
     173     175     1       1.39860000e-01   2.96436400e+05 
     175     176     1       1.51590000e-01   2.03342400e+05 
     175     205     1       1.39860000e-01   2.96436400e+05 
     176     177     1       1.09470000e-01   2.90754528e+05 
     176     178     1       1.55780000e-01   1.78983152e+05 
     176     200     1       1.54250000e-01   1.87443200e+05 
     178     179     1       1.09470000e-01   2.90754528e+05 
     178     180     1       1.54250000e-01   1.87443200e+05 
     178     205     1       1.51590000e-01   2.03342400e+05 
     180     181     1       1.09540000e-01   2.89892624e+05 
     180     182     1       1.54250000e-01   1.87443200e+05 
     180     202     1       1.54830000e-01   1.84179680e+05 
     182     183     1       1.09470000e-01   2.90754528e+05 
     182     184     1       1.51590000e-01   2.03342400e+05 
     182     198     1       1.55780000e-01   1.78983152e+05 
     184     185     1       1.39860000e-01   2.96436400e+05 
     184     193     1       1.39860000e-01   2.96436400e+05 
     185     186     1       1.39860000e-01   2.96436400e+05 
     185     198     1       1.51590000e-01   2.03342400e+05 
     186     187     1       1.51470000e-01   2.04103888e+05 
     186     191     1       1.39860000e-01   2.96436400e+05 
     187     188     1       1.09620000e-01   2.88905200e+05 
     187     189     1       1.09620000e-01   2.88905200e+05 
     187     190     1       1.09620000e-01   2.88905200e+05 
     191     192     1       1.39860000e-01   2.96436400e+05 
     191     2852    1       1.51590000e-01   2.03342400e+05 
     192     193     1       1.39860000e-01   2.96436400e+05 
     192     2850    1       1.51590000e-01   2.03342400e+05 
     193     194     1       1.51470000e-01   2.04103888e+05 
     194     195     1       1.09620000e-01   2.88905200e+05 
     194     196     1       1.09620000e-01   2.88905200e+05 
     194     197     1       1.09620000e-01   2.88905200e+05 
     198     199     1       1.09470000e-01   2.90754528e+05 
     198     200     1       1.54250000e-01   1.87443200e+05 
     200     201     1       1.09540000e-01   2.89892624e+05 
     200     202     1       1.54830000e-01   1.84179680e+05 
     202     203     1       1.09540000e-01   2.89892624e+05 
     202     204     1       1.09540000e-01   2.89892624e+05 
     205     206     1       1.39860000e-01   2.96436400e+05 
     206     207     1       1.08600000e-01   3.01825392e+05 
     208     209     1       1.09620000e-01   2.88905200e+05 
     208     210     1       1.09620000e-01   2.88905200e+05 
     208     211     1       1.09620000e-01   2.88905200e+05 
     208     212     1       1.53720000e-01   1.90489152e+05 
     212     213     1       1.53720000e-01   1.90489152e+05 
     212     217     1       1.51510000e-01   2.03844480e+05 
     212     241     1       1.51510000e-01   2.03844480e+05 
     213     214     1       1.09620000e-01   2.88905200e+05 
     213     215     1       1.09620000e-01   2.88905200e+05 
     213     216     1       1.09620000e-01   2.88905200e+05 
     217     218     1       1.40560000e-01   2.89591376e+05 
     217     238     1       1.39860000e-01   2.96436400e+05 
     218     219     1       1.40560000e-01   2.89591376e+05 
     218     240     1       1.48290000e-01   2.25408816e+05 
     219     220     1       1.08600000e-01   3.01825392e+05 
     219     221     1       1.39860000e-01   2.96436400e+05 
     221     222     1       1.51590000e-01   2.03342400e+05 
     221     237     1       1.39860000e-01   2.96436400e+05 
     222     223     1       1.09470000e-01   2.90754528e+05 
     222     224     1       1.55780000e-01   1.78983152e+05 
     222     232     1       1.54250000e-01   1.87443200e+05 
     224     225     1       1.09470000e-01   2.90754528e+05 
     224     226     1       1.54250000e-01   1.87443200e+05 
     224     237     1       1.51590000e-01   2.03342400e+05 
     226     227     1       1.09540000e-01   2.89892624e+05 
     226     228     1       1.54250000e-01   1.87443200e+05 
     226     234     1       1.54830000e-01   1.84179680e+05 
     228     229     1       1.09470000e-01   2.90754528e+05 
     228     230     1       1.55780000e-01   1.78983152e+05 
     230     231     1       1.09470000e-01   2.90754528e+05 
     232     230     1       1.54250000e-01   1.87443200e+05 
     232     233     1       1.09540000e-01   2.89892624e+05 
     232     234     1       1.54830000e-01   1.84179680e+05 
     234     235     1       1.09540000e-01   2.89892624e+05 
     234     236     1       1.09540000e-01   2.89892624e+05 
     237     238     1       1.39860000e-01   2.96436400e+05 
     238     239     1       1.08600000e-01   3.01825392e+05 
     240     241     1       1.40560000e-01   2.89591376e+05 
     240     275     1       1.40560000e-01   2.89591376e+05 
     241     242     1       1.39860000e-01   2.96436400e+05 
     242     243     1       1.08600000e-01   3.01825392e+05 
     242     244     1       1.39860000e-01   2.96436400e+05 
     244     245     1       1.51590000e-01   2.03342400e+05 
     244     274     1       1.39860000e-01   2.96436400e+05 
     245     246     1       1.09470000e-01   2.90754528e+05 
     245     247     1       1.55780000e-01   1.78983152e+05 
     245     269     1       1.54250000e-01   1.87443200e+05 
     247     248     1       1.09470000e-01   2.90754528e+05 
     247     249     1       1.54250000e-01   1.87443200e+05 
     247     274     1       1.51590000e-01   2.03342400e+05 
     249     250     1       1.09540000e-01   2.89892624e+05 
     249     251     1       1.54250000e-01   1.87443200e+05 
     249     271     1       1.54830000e-01   1.84179680e+05 
     251     252     1       1.09470000e-01   2.90754528e+05 
     251     253     1       1.51590000e-01   2.03342400e+05 
     251     267     1       1.55780000e-01   1.78983152e+05 
     253     254     1       1.39860000e-01   2.96436400e+05 
     253     262     1       1.39860000e-01   2.96436400e+05 
     254     255     1       1.39860000e-01   2.96436400e+05 
     254     267     1       1.51590000e-01   2.03342400e+05 
     255     256     1       1.51470000e-01   2.04103888e+05 
     255     260     1       1.39860000e-01   2.96436400e+05 
     256     257     1       1.09620000e-01   2.88905200e+05 
     256     258     1       1.09620000e-01   2.88905200e+05 
     256     259     1       1.09620000e-01   2.88905200e+05 
     260     261     1       1.39860000e-01   2.96436400e+05 
     260     6647    1       1.51590000e-01   2.03342400e+05 
     261     262     1       1.39860000e-01   2.96436400e+05 
     261     6645    1       1.51590000e-01   2.03342400e+05 
     262     263     1       1.51470000e-01   2.04103888e+05 
     263     264     1       1.09620000e-01   2.88905200e+05 
     263     265     1       1.09620000e-01   2.88905200e+05 
     263     266     1       1.09620000e-01   2.88905200e+05 
     267     268     1       1.09470000e-01   2.90754528e+05 
     267     269     1       1.54250000e-01   1.87443200e+05 
     269     270     1       1.09540000e-01   2.89892624e+05 
     269     271     1       1.54830000e-01   1.84179680e+05 
     271     272     1       1.09540000e-01   2.89892624e+05 
     271     273     1       1.09540000e-01   2.89892624e+05 
     274     275     1       1.39860000e-01   2.96436400e+05 
     275     276     1       1.08600000e-01   3.01825392e+05 
     277     278     1       1.09620000e-01   2.88905200e+05 
     277     279     1       1.09620000e-01   2.88905200e+05 
     277     280     1       1.09620000e-01   2.88905200e+05 
     277     281     1       1.53720000e-01   1.90489152e+05 
     281     282     1       1.53720000e-01   1.90489152e+05 
     281     286     1       1.51510000e-01   2.03844480e+05 
     281     310     1       1.51510000e-01   2.03844480e+05 
     282     283     1       1.09620000e-01   2.88905200e+05 
     282     284     1       1.09620000e-01   2.88905200e+05 
     282     285     1       1.09620000e-01   2.88905200e+05 
     286     287     1       1.40560000e-01   2.89591376e+05 
     286     307     1       1.39860000e-01   2.96436400e+05 
     287     288     1       1.40560000e-01   2.89591376e+05 
     287     309     1       1.48290000e-01   2.25408816e+05 
     288     289     1       1.08600000e-01   3.01825392e+05 
     288     290     1       1.39860000e-01   2.96436400e+05 
     290     291     1       1.51590000e-01   2.03342400e+05 
     290     306     1       1.39860000e-01   2.96436400e+05 
     291     292     1       1.09470000e-01   2.90754528e+05 
     291     293     1       1.55780000e-01   1.78983152e+05 
     291     301     1       1.54250000e-01   1.87443200e+05 
     293     294     1       1.09470000e-01   2.90754528e+05 
     293     295     1       1.54250000e-01   1.87443200e+05 
     293     306     1       1.51590000e-01   2.03342400e+05 
     295     296     1       1.09540000e-01   2.89892624e+05 
     295     297     1       1.54250000e-01   1.87443200e+05 
     295     303     1       1.54830000e-01   1.84179680e+05 
     297     298     1       1.09470000e-01   2.90754528e+05 
     297     299     1       1.55780000e-01   1.78983152e+05 
     299     300     1       1.09470000e-01   2.90754528e+05 
     301     299     1       1.54250000e-01   1.87443200e+05 
     301     302     1       1.09540000e-01   2.89892624e+05 
     301     303     1       1.54830000e-01   1.84179680e+05 
     303     304     1       1.09540000e-01   2.89892624e+05 
     303     305     1       1.09540000e-01   2.89892624e+05 
     306     307     1       1.39860000e-01   2.96436400e+05 
     307     308     1       1.08600000e-01   3.01825392e+05 
     309     310     1       1.40560000e-01   2.89591376e+05 
     309     344     1       1.40560000e-01   2.89591376e+05 
     310     311     1       1.39860000e-01   2.96436400e+05 
     311     312     1       1.08600000e-01   3.01825392e+05 
     311     313     1       1.39860000e-01   2.96436400e+05 
     313     314     1       1.51590000e-01   2.03342400e+05 
     313     343     1       1.39860000e-01   2.96436400e+05 
     314     315     1       1.09470000e-01   2.90754528e+05 
     314     316     1       1.55780000e-01   1.78983152e+05 
     314     338     1       1.54250000e-01   1.87443200e+05 
     316     317     1       1.09470000e-01   2.90754528e+05 
     316     318     1       1.54250000e-01   1.87443200e+05 
     316     343     1       1.51590000e-01   2.03342400e+05 
     318     319     1       1.09540000e-01   2.89892624e+05 
     318     320     1       1.54250000e-01   1.87443200e+05 
     318     340     1       1.54830000e-01   1.84179680e+05 
     320     321     1       1.09470000e-01   2.90754528e+05 
     320     322     1       1.51590000e-01   2.03342400e+05 
     320     336     1       1.55780000e-01   1.78983152e+05 
     322     323     1       1.39860000e-01   2.96436400e+05 
     322     331     1       1.39860000e-01   2.96436400e+05 
     323     324     1       1.39860000e-01   2.96436400e+05 
     323     336     1       1.51590000e-01   2.03342400e+05 
     324     325     1       1.51470000e-01   2.04103888e+05 
     324     329     1       1.39860000e-01   2.96436400e+05 
     325     326     1       1.09620000e-01   2.88905200e+05 
     325     327     1       1.09620000e-01   2.88905200e+05 
     325     328     1       1.09620000e-01   2.88905200e+05 
     329     330     1       1.39860000e-01   2.96436400e+05 
     329     4370    1       1.51590000e-01   2.03342400e+05 
     330     331     1       1.39860000e-01   2.96436400e+05 
     330     4368    1       1.51590000e-01   2.03342400e+05 
     331     332     1       1.51470000e-01   2.04103888e+05 
     332     333     1       1.09620000e-01   2.88905200e+05 
     332     334     1       1.09620000e-01   2.88905200e+05 
     332     335     1       1.09620000e-01   2.88905200e+05 
     336     337     1       1.09470000e-01   2.90754528e+05 
     336     338     1       1.54250000e-01   1.87443200e+05 
     338     339     1       1.09540000e-01   2.89892624e+05 
     338     340     1       1.54830000e-01   1.84179680e+05 
     340     341     1       1.09540000e-01   2.89892624e+05 
     340     342     1       1.09540000e-01   2.89892624e+05 
     343     344     1       1.39860000e-01   2.96436400e+05 
     344     345     1       1.08600000e-01   3.01825392e+05 
     346     347     1       1.09620000e-01   2.88905200e+05 
     346     348     1       1.09620000e-01   2.88905200e+05 
     346     349     1       1.09620000e-01   2.88905200e+05 
     346     350     1       1.53720000e-01   1.90489152e+05 
     350     351     1       1.53720000e-01   1.90489152e+05 
     350     355     1       1.51510000e-01   2.03844480e+05 
     350     379     1       1.51510000e-01   2.03844480e+05 
     351     352     1       1.09620000e-01   2.88905200e+05 
     351     353     1       1.09620000e-01   2.88905200e+05 
     351     354     1       1.09620000e-01   2.88905200e+05 
     355     356     1       1.40560000e-01   2.89591376e+05 
     355     376     1       1.39860000e-01   2.96436400e+05 
     356     357     1       1.40560000e-01   2.89591376e+05 
     356     378     1       1.48290000e-01   2.25408816e+05 
     357     358     1       1.08600000e-01   3.01825392e+05 
     357     359     1       1.39860000e-01   2.96436400e+05 
     359     360     1       1.51590000e-01   2.03342400e+05 
     359     375     1       1.39860000e-01   2.96436400e+05 
     360     361     1       1.09470000e-01   2.90754528e+05 
     360     362     1       1.55780000e-01   1.78983152e+05 
     360     370     1       1.54250000e-01   1.87443200e+05 
     362     363     1       1.09470000e-01   2.90754528e+05 
     362     364     1       1.54250000e-01   1.87443200e+05 
     362     375     1       1.51590000e-01   2.03342400e+05 
     364     365     1       1.09540000e-01   2.89892624e+05 
     364     366     1       1.54250000e-01   1.87443200e+05 
     364     372     1       1.54830000e-01   1.84179680e+05 
     366     367     1       1.09470000e-01   2.90754528e+05 
     366     368     1       1.55780000e-01   1.78983152e+05 
     368     369     1       1.09470000e-01   2.90754528e+05 
     370     368     1       1.54250000e-01   1.87443200e+05 
     370     371     1       1.09540000e-01   2.89892624e+05 
     370     372     1       1.54830000e-01   1.84179680e+05 
     372     373     1       1.09540000e-01   2.89892624e+05 
     372     374     1       1.09540000e-01   2.89892624e+05 
     375     376     1       1.39860000e-01   2.96436400e+05 
     376     377     1       1.08600000e-01   3.01825392e+05 
     378     379     1       1.40560000e-01   2.89591376e+05 
     378     413     1       1.40560000e-01   2.89591376e+05 
     379     380     1       1.39860000e-01   2.96436400e+05 
     380     381     1       1.08600000e-01   3.01825392e+05 
     380     382     1       1.39860000e-01   2.96436400e+05 
     382     383     1       1.51590000e-01   2.03342400e+05 
     382     412     1       1.39860000e-01   2.96436400e+05 
     383     384     1       1.09470000e-01   2.90754528e+05 
     383     385     1       1.55780000e-01   1.78983152e+05 
     383     407     1       1.54250000e-01   1.87443200e+05 
     385     386     1       1.09470000e-01   2.90754528e+05 
     385     387     1       1.54250000e-01   1.87443200e+05 
     385     412     1       1.51590000e-01   2.03342400e+05 
     387     388     1       1.09540000e-01   2.89892624e+05 
     387     389     1       1.54250000e-01   1.87443200e+05 
     387     409     1       1.54830000e-01   1.84179680e+05 
     389     390     1       1.09470000e-01   2.90754528e+05 
     389     391     1       1.51590000e-01   2.03342400e+05 
     389     405     1       1.55780000e-01   1.78983152e+05 
     391     392     1       1.39860000e-01   2.96436400e+05 
     391     400     1       1.39860000e-01   2.96436400e+05 
     392     393     1       1.39860000e-01   2.96436400e+05 
     392     405     1       1.51590000e-01   2.03342400e+05 
     393     394     1       1.51470000e-01   2.04103888e+05 
     393     398     1       1.39860000e-01   2.96436400e+05 
     394     395     1       1.09620000e-01   2.88905200e+05 
     394     396     1       1.09620000e-01   2.88905200e+05 
     394     397     1       1.09620000e-01   2.88905200e+05 
     398     399     1       1.39860000e-01   2.96436400e+05 
     399     400     1       1.39860000e-01   2.96436400e+05 
     400     401     1       1.51470000e-01   2.04103888e+05 
     401     402     1       1.09620000e-01   2.88905200e+05 
     401     403     1       1.09620000e-01   2.88905200e+05 
     401     404     1       1.09620000e-01   2.88905200e+05 
     405     406     1       1.09470000e-01   2.90754528e+05 
     405     407     1       1.54250000e-01   1.87443200e+05 
     407     408     1       1.09540000e-01   2.89892624e+05 
     407     409     1       1.54830000e-01   1.84179680e+05 
     409     410     1       1.09540000e-01   2.89892624e+05 
     409     411     1       1.09540000e-01   2.89892624e+05 
     412     413     1       1.39860000e-01   2.96436400e+05 
     413     414     1       1.08600000e-01   3.01825392e+05 
     415     416     1       1.09620000e-01   2.88905200e+05 
     415     417     1       1.09620000e-01   2.88905200e+05 
     415     418     1       1.09620000e-01   2.88905200e+05 
     415     419     1       1.53720000e-01   1.90489152e+05 
     419     420     1       1.53720000e-01   1.90489152e+05 
     419     424     1       1.51510000e-01   2.03844480e+05 
     419     448     1       1.51510000e-01   2.03844480e+05 
     420     421     1       1.09620000e-01   2.88905200e+05 
     420     422     1       1.09620000e-01   2.88905200e+05 
     420     423     1       1.09620000e-01   2.88905200e+05 
     424     425     1       1.40560000e-01   2.89591376e+05 
     424     445     1       1.39860000e-01   2.96436400e+05 
     425     426     1       1.40560000e-01   2.89591376e+05 
     425     447     1       1.48290000e-01   2.25408816e+05 
     426     427     1       1.08600000e-01   3.01825392e+05 
     426     428     1       1.39860000e-01   2.96436400e+05 
     428     429     1       1.51590000e-01   2.03342400e+05 
     428     444     1       1.39860000e-01   2.96436400e+05 
     429     430     1       1.09470000e-01   2.90754528e+05 
     429     431     1       1.55780000e-01   1.78983152e+05 
     429     439     1       1.54250000e-01   1.87443200e+05 
     431     432     1       1.09470000e-01   2.90754528e+05 
     431     433     1       1.54250000e-01   1.87443200e+05 
     431     444     1       1.51590000e-01   2.03342400e+05 
     433     434     1       1.09540000e-01   2.89892624e+05 
     433     435     1       1.54250000e-01   1.87443200e+05 
     433     441     1       1.54830000e-01   1.84179680e+05 
     435     436     1       1.09470000e-01   2.90754528e+05 
     435     437     1       1.55780000e-01   1.78983152e+05 
     437     438     1       1.09470000e-01   2.90754528e+05 
     439     437     1       1.54250000e-01   1.87443200e+05 
     439     440     1       1.09540000e-01   2.89892624e+05 
     439     441     1       1.54830000e-01   1.84179680e+05 
     441     442     1       1.09540000e-01   2.89892624e+05 
     441     443     1       1.09540000e-01   2.89892624e+05 
     444     445     1       1.39860000e-01   2.96436400e+05 
     445     446     1       1.08600000e-01   3.01825392e+05 
     447     448     1       1.40560000e-01   2.89591376e+05 
     447     482     1       1.40560000e-01   2.89591376e+05 
     448     449     1       1.39860000e-01   2.96436400e+05 
     449     450     1       1.08600000e-01   3.01825392e+05 
     449     451     1       1.39860000e-01   2.96436400e+05 
     451     452     1       1.51590000e-01   2.03342400e+05 
     451     481     1       1.39860000e-01   2.96436400e+05 
     452     453     1       1.09470000e-01   2.90754528e+05 
     452     454     1       1.55780000e-01   1.78983152e+05 
     452     476     1       1.54250000e-01   1.87443200e+05 
     454     455     1       1.09470000e-01   2.90754528e+05 
     454     456     1       1.54250000e-01   1.87443200e+05 
     454     481     1       1.51590000e-01   2.03342400e+05 
     456     457     1       1.09540000e-01   2.89892624e+05 
     456     458     1       1.54250000e-01   1.87443200e+05 
     456     478     1       1.54830000e-01   1.84179680e+05 
     458     459     1       1.09470000e-01   2.90754528e+05 
     458     460     1       1.51590000e-01   2.03342400e+05 
     458     474     1       1.55780000e-01   1.78983152e+05 
     460     461     1       1.39860000e-01   2.96436400e+05 
     460     469     1       1.39860000e-01   2.96436400e+05 
     461     462     1       1.39860000e-01   2.96436400e+05 
     461     474     1       1.51590000e-01   2.03342400e+05 
     462     463     1       1.51470000e-01   2.04103888e+05 
     462     467     1       1.39860000e-01   2.96436400e+05 
     463     464     1       1.09620000e-01   2.88905200e+05 
     463     465     1       1.09620000e-01   2.88905200e+05 
     463     466     1       1.09620000e-01   2.88905200e+05 
     467     468     1       1.39860000e-01   2.96436400e+05 
     467     2576    1       1.51590000e-01   2.03342400e+05 
     468     469     1       1.39860000e-01   2.96436400e+05 
     468     2574    1       1.51590000e-01   2.03342400e+05 
     469     470     1       1.51470000e-01   2.04103888e+05 
     470     471     1       1.09620000e-01   2.88905200e+05 
     470     472     1       1.09620000e-01   2.88905200e+05 
     470     473     1       1.09620000e-01   2.88905200e+05 
     474     475     1       1.09470000e-01   2.90754528e+05 
     474     476     1       1.54250000e-01   1.87443200e+05 
     476     477     1       1.09540000e-01   2.89892624e+05 
     476     478     1       1.54830000e-01   1.84179680e+05 
     478     479     1       1.09540000e-01   2.89892624e+05 
     478     480     1       1.09540000e-01   2.89892624e+05 
     481     482     1       1.39860000e-01   2.96436400e+05 
     482     483     1       1.08600000e-01   3.01825392e+05 
     484     485     1       1.09620000e-01   2.88905200e+05 
     484     486     1       1.09620000e-01   2.88905200e+05 
     484     487     1       1.09620000e-01   2.88905200e+05 
     484     488     1       1.53720000e-01   1.90489152e+05 
     488     489     1       1.53720000e-01   1.90489152e+05 
     488     493     1       1.51510000e-01   2.03844480e+05 
     488     517     1       1.51510000e-01   2.03844480e+05 
     489     490     1       1.09620000e-01   2.88905200e+05 
     489     491     1       1.09620000e-01   2.88905200e+05 
     489     492     1       1.09620000e-01   2.88905200e+05 
     493     494     1       1.40560000e-01   2.89591376e+05 
     493     514     1       1.39860000e-01   2.96436400e+05 
     494     495     1       1.40560000e-01   2.89591376e+05 
     494     516     1       1.48290000e-01   2.25408816e+05 
     495     496     1       1.08600000e-01   3.01825392e+05 
     495     497     1       1.39860000e-01   2.96436400e+05 
     497     498     1       1.51590000e-01   2.03342400e+05 
     497     513     1       1.39860000e-01   2.96436400e+05 
     498     499     1       1.09470000e-01   2.90754528e+05 
     498     500     1       1.55780000e-01   1.78983152e+05 
     498     508     1       1.54250000e-01   1.87443200e+05 
     500     501     1       1.09470000e-01   2.90754528e+05 
     500     502     1       1.54250000e-01   1.87443200e+05 
     500     513     1       1.51590000e-01   2.03342400e+05 
     502     503     1       1.09540000e-01   2.89892624e+05 
     502     504     1       1.54250000e-01   1.87443200e+05 
     502     510     1       1.54830000e-01   1.84179680e+05 
     504     505     1       1.09470000e-01   2.90754528e+05 
     504     506     1       1.55780000e-01   1.78983152e+05 
     506     507     1       1.09470000e-01   2.90754528e+05 
     508     506     1       1.54250000e-01   1.87443200e+05 
     508     509     1       1.09540000e-01   2.89892624e+05 
     508     510     1       1.54830000e-01   1.84179680e+05 
     510     511     1       1.09540000e-01   2.89892624e+05 
     510     512     1       1.09540000e-01   2.89892624e+05 
     513     514     1       1.39860000e-01   2.96436400e+05 
     514     515     1       1.08600000e-01   3.01825392e+05 
     516     517     1       1.40560000e-01   2.89591376e+05 
     516     551     1       1.40560000e-01   2.89591376e+05 
     517     518     1       1.39860000e-01   2.96436400e+05 
     518     519     1       1.08600000e-01   3.01825392e+05 
     518     520     1       1.39860000e-01   2.96436400e+05 
     520     521     1       1.51590000e-01   2.03342400e+05 
     520     550     1       1.39860000e-01   2.96436400e+05 
     521     522     1       1.09470000e-01   2.90754528e+05 
     521     523     1       1.55780000e-01   1.78983152e+05 
     521     545     1       1.54250000e-01   1.87443200e+05 
     523     524     1       1.09470000e-01   2.90754528e+05 
     523     525     1       1.54250000e-01   1.87443200e+05 
     523     550     1       1.51590000e-01   2.03342400e+05 
     525     526     1       1.09540000e-01   2.89892624e+05 
     525     527     1       1.54250000e-01   1.87443200e+05 
     525     547     1       1.54830000e-01   1.84179680e+05 
     527     528     1       1.09470000e-01   2.90754528e+05 
     527     529     1       1.51590000e-01   2.03342400e+05 
     527     543     1       1.55780000e-01   1.78983152e+05 
     529     530     1       1.39860000e-01   2.96436400e+05 
     529     538     1       1.39860000e-01   2.96436400e+05 
     530     531     1       1.39860000e-01   2.96436400e+05 
     530     543     1       1.51590000e-01   2.03342400e+05 
     531     532     1       1.51470000e-01   2.04103888e+05 
     531     536     1       1.39860000e-01   2.96436400e+05 
     532     533     1       1.09620000e-01   2.88905200e+05 
     532     534     1       1.09620000e-01   2.88905200e+05 
     532     535     1       1.09620000e-01   2.88905200e+05 
     536     537     1       1.39860000e-01   2.96436400e+05 
     536     6371    1       1.51590000e-01   2.03342400e+05 
     537     538     1       1.39860000e-01   2.96436400e+05 
     537     6369    1       1.51590000e-01   2.03342400e+05 
     538     539     1       1.51470000e-01   2.04103888e+05 
     539     540     1       1.09620000e-01   2.88905200e+05 
     539     541     1       1.09620000e-01   2.88905200e+05 
     539     542     1       1.09620000e-01   2.88905200e+05 
     543     544     1       1.09470000e-01   2.90754528e+05 
     543     545     1       1.54250000e-01   1.87443200e+05 
     545     546     1       1.09540000e-01   2.89892624e+05 
     545     547     1       1.54830000e-01   1.84179680e+05 
     547     548     1       1.09540000e-01   2.89892624e+05 
     547     549     1       1.09540000e-01   2.89892624e+05 
     550     551     1       1.39860000e-01   2.96436400e+05 
     551     552     1       1.08600000e-01   3.01825392e+05 
     553     554     1       1.09620000e-01   2.88905200e+05 
     553     555     1       1.09620000e-01   2.88905200e+05 
     553     556     1       1.09620000e-01   2.88905200e+05 
     553     557     1       1.53720000e-01   1.90489152e+05 
     557     558     1       1.53720000e-01   1.90489152e+05 
     557     562     1       1.51510000e-01   2.03844480e+05 
     557     586     1       1.51510000e-01   2.03844480e+05 
     558     559     1       1.09620000e-01   2.88905200e+05 
     558     560     1       1.09620000e-01   2.88905200e+05 
     558     561     1       1.09620000e-01   2.88905200e+05 
     562     563     1       1.40560000e-01   2.89591376e+05 
     562     583     1       1.39860000e-01   2.96436400e+05 
     563     564     1       1.40560000e-01   2.89591376e+05 
     563     585     1       1.48290000e-01   2.25408816e+05 
     564     565     1       1.08600000e-01   3.01825392e+05 
     564     566     1       1.39860000e-01   2.96436400e+05 
     566     567     1       1.51590000e-01   2.03342400e+05 
     566     582     1       1.39860000e-01   2.96436400e+05 
     567     568     1       1.09470000e-01   2.90754528e+05 
     567     569     1       1.55780000e-01   1.78983152e+05 
     567     577     1       1.54250000e-01   1.87443200e+05 
     569     570     1       1.09470000e-01   2.90754528e+05 
     569     571     1       1.54250000e-01   1.87443200e+05 
     569     582     1       1.51590000e-01   2.03342400e+05 
     571     572     1       1.09540000e-01   2.89892624e+05 
     571     573     1       1.54250000e-01   1.87443200e+05 
     571     579     1       1.54830000e-01   1.84179680e+05 
     573     574     1       1.09470000e-01   2.90754528e+05 
     573     575     1       1.55780000e-01   1.78983152e+05 
     575     576     1       1.09470000e-01   2.90754528e+05 
     577     575     1       1.54250000e-01   1.87443200e+05 
     577     578     1       1.09540000e-01   2.89892624e+05 
     577     579     1       1.54830000e-01   1.84179680e+05 
     579     580     1       1.09540000e-01   2.89892624e+05 
     579     581     1       1.09540000e-01   2.89892624e+05 
     582     583     1       1.39860000e-01   2.96436400e+05 
     583     584     1       1.08600000e-01   3.01825392e+05 
     585     586     1       1.40560000e-01   2.89591376e+05 
     585     620     1       1.40560000e-01   2.89591376e+05 
     586     587     1       1.39860000e-01   2.96436400e+05 
     587     588     1       1.08600000e-01   3.01825392e+05 
     587     589     1       1.39860000e-01   2.96436400e+05 
     589     590     1       1.51590000e-01   2.03342400e+05 
     589     619     1       1.39860000e-01   2.96436400e+05 
     590     591     1       1.09470000e-01   2.90754528e+05 
     590     592     1       1.55780000e-01   1.78983152e+05 
     590     614     1       1.54250000e-01   1.87443200e+05 
     592     593     1       1.09470000e-01   2.90754528e+05 
     592     594     1       1.54250000e-01   1.87443200e+05 
     592     619     1       1.51590000e-01   2.03342400e+05 
     594     595     1       1.09540000e-01   2.89892624e+05 
     594     596     1       1.54250000e-01   1.87443200e+05 
     594     616     1       1.54830000e-01   1.84179680e+05 
     596     597     1       1.09470000e-01   2.90754528e+05 
     596     598     1       1.51590000e-01   2.03342400e+05 
     596     612     1       1.55780000e-01   1.78983152e+05 
     598     599     1       1.39860000e-01   2.96436400e+05 
     598     607     1       1.39860000e-01   2.96436400e+05 
     599     600     1       1.39860000e-01   2.96436400e+05 
     599     612     1       1.51590000e-01   2.03342400e+05 
     600     601     1       1.51470000e-01   2.04103888e+05 
     600     605     1       1.39860000e-01   2.96436400e+05 
     601     602     1       1.09620000e-01   2.88905200e+05 
     601     603     1       1.09620000e-01   2.88905200e+05 
     601     604     1       1.09620000e-01   2.88905200e+05 
     605     228     1       1.51590000e-01   2.03342400e+05 
     605     606     1       1.39860000e-01   2.96436400e+05 
     606     230     1       1.51590000e-01   2.03342400e+05 
     606     607     1       1.39860000e-01   2.96436400e+05 
     607     608     1       1.51470000e-01   2.04103888e+05 
     608     609     1       1.09620000e-01   2.88905200e+05 
     608     610     1       1.09620000e-01   2.88905200e+05 
     608     611     1       1.09620000e-01   2.88905200e+05 
     612     613     1       1.09470000e-01   2.90754528e+05 
     612     614     1       1.54250000e-01   1.87443200e+05 
     614     615     1       1.09540000e-01   2.89892624e+05 
     614     616     1       1.54830000e-01   1.84179680e+05 
     616     617     1       1.09540000e-01   2.89892624e+05 
     616     618     1       1.09540000e-01   2.89892624e+05 
     619     620     1       1.39860000e-01   2.96436400e+05 
     620     621     1       1.08600000e-01   3.01825392e+05 
     622     623     1       1.09620000e-01   2.88905200e+05 
     622     624     1       1.09620000e-01   2.88905200e+05 
     622     625     1       1.09620000e-01   2.88905200e+05 
     622     626     1       1.53720000e-01   1.90489152e+05 
     626     627     1       1.53720000e-01   1.90489152e+05 
     626     631     1       1.51510000e-01   2.03844480e+05 
     626     655     1       1.51510000e-01   2.03844480e+05 
     627     628     1       1.09620000e-01   2.88905200e+05 
     627     629     1       1.09620000e-01   2.88905200e+05 
     627     630     1       1.09620000e-01   2.88905200e+05 
     631     632     1       1.40560000e-01   2.89591376e+05 
     631     652     1       1.39860000e-01   2.96436400e+05 
     632     633     1       1.40560000e-01   2.89591376e+05 
     632     654     1       1.48290000e-01   2.25408816e+05 
     633     634     1       1.08600000e-01   3.01825392e+05 
     633     635     1       1.39860000e-01   2.96436400e+05 
     635     636     1       1.51590000e-01   2.03342400e+05 
     635     651     1       1.39860000e-01   2.96436400e+05 
     636     637     1       1.09470000e-01   2.90754528e+05 
     636     638     1       1.55780000e-01   1.78983152e+05 
     636     646     1       1.54250000e-01   1.87443200e+05 
     638     639     1       1.09470000e-01   2.90754528e+05 
     638     640     1       1.54250000e-01   1.87443200e+05 
     638     651     1       1.51590000e-01   2.03342400e+05 
     640     641     1       1.09540000e-01   2.89892624e+05 
     640     642     1       1.54250000e-01   1.87443200e+05 
     640     648     1       1.54830000e-01   1.84179680e+05 
     642     643     1       1.09470000e-01   2.90754528e+05 
     642     644     1       1.55780000e-01   1.78983152e+05 
     644     645     1       1.09470000e-01   2.90754528e+05 
     646     644     1       1.54250000e-01   1.87443200e+05 
     646     647     1       1.09540000e-01   2.89892624e+05 
     646     648     1       1.54830000e-01   1.84179680e+05 
     648     649     1       1.09540000e-01   2.89892624e+05 
     648     650     1       1.09540000e-01   2.89892624e+05 
     651     652     1       1.39860000e-01   2.96436400e+05 
     652     653     1       1.08600000e-01   3.01825392e+05 
     654     655     1       1.40560000e-01   2.89591376e+05 
     654     689     1       1.40560000e-01   2.89591376e+05 
     655     656     1       1.39860000e-01   2.96436400e+05 
     656     657     1       1.08600000e-01   3.01825392e+05 
     656     658     1       1.39860000e-01   2.96436400e+05 
     658     659     1       1.51590000e-01   2.03342400e+05 
     658     688     1       1.39860000e-01   2.96436400e+05 
     659     660     1       1.09470000e-01   2.90754528e+05 
     659     661     1       1.55780000e-01   1.78983152e+05 
     659     683     1       1.54250000e-01   1.87443200e+05 
     661     662     1       1.09470000e-01   2.90754528e+05 
     661     663     1       1.54250000e-01   1.87443200e+05 
     661     688     1       1.51590000e-01   2.03342400e+05 
     663     664     1       1.09540000e-01   2.89892624e+05 
     663     665     1       1.54250000e-01   1.87443200e+05 
     663     685     1       1.54830000e-01   1.84179680e+05 
     665     666     1       1.09470000e-01   2.90754528e+05 
     665     667     1       1.51590000e-01   2.03342400e+05 
     665     681     1       1.55780000e-01   1.78983152e+05 
     667     668     1       1.39860000e-01   2.96436400e+05 
     667     676     1       1.39860000e-01   2.96436400e+05 
     668     669     1       1.39860000e-01   2.96436400e+05 
     668     681     1       1.51590000e-01   2.03342400e+05 
     669     670     1       1.51470000e-01   2.04103888e+05 
     669     674     1       1.39860000e-01   2.96436400e+05 
     670     671     1       1.09620000e-01   2.88905200e+05 
     670     672     1       1.09620000e-01   2.88905200e+05 
     670     673     1       1.09620000e-01   2.88905200e+05 
     674     675     1       1.39860000e-01   2.96436400e+05 
     674     2714    1       1.51590000e-01   2.03342400e+05 
     675     676     1       1.39860000e-01   2.96436400e+05 
     675     2712    1       1.51590000e-01   2.03342400e+05 
     676     677     1       1.51470000e-01   2.04103888e+05 
     677     678     1       1.09620000e-01   2.88905200e+05 
     677     679     1       1.09620000e-01   2.88905200e+05 
     677     680     1       1.09620000e-01   2.88905200e+05 
     681     682     1       1.09470000e-01   2.90754528e+05 
     681     683     1       1.54250000e-01   1.87443200e+05 
     683     684     1       1.09540000e-01   2.89892624e+05 
     683     685     1       1.54830000e-01   1.84179680e+05 
     685     686     1       1.09540000e-01   2.89892624e+05 
     685     687     1       1.09540000e-01   2.89892624e+05 
     688     689     1       1.39860000e-01   2.96436400e+05 
     689     690     1       1.08600000e-01   3.01825392e+05 
     691     692     1       1.09620000e-01   2.88905200e+05 
     691     693     1       1.09620000e-01   2.88905200e+05 
     691     694     1       1.09620000e-01   2.88905200e+05 
     691     695     1       1.53720000e-01   1.90489152e+05 
     695     696     1       1.53720000e-01   1.90489152e+05 
     695     700     1       1.51510000e-01   2.03844480e+05 
     695     724     1       1.51510000e-01   2.03844480e+05 
     696     697     1       1.09620000e-01   2.88905200e+05 
     696     698     1       1.09620000e-01   2.88905200e+05 
     696     699     1       1.09620000e-01   2.88905200e+05 
     700     701     1       1.40560000e-01   2.89591376e+05 
     700     721     1       1.39860000e-01   2.96436400e+05 
     701     702     1       1.40560000e-01   2.89591376e+05 
     701     723     1       1.48290000e-01   2.25408816e+05 
     702     703     1       1.08600000e-01   3.01825392e+05 
     702     704     1       1.39860000e-01   2.96436400e+05 
     704     705     1       1.51590000e-01   2.03342400e+05 
     704     720     1       1.39860000e-01   2.96436400e+05 
     705     706     1       1.09470000e-01   2.90754528e+05 
     705     707     1       1.55780000e-01   1.78983152e+05 
     705     715     1       1.54250000e-01   1.87443200e+05 
     707     708     1       1.09470000e-01   2.90754528e+05 
     707     709     1       1.54250000e-01   1.87443200e+05 
     707     720     1       1.51590000e-01   2.03342400e+05 
     709     710     1       1.09540000e-01   2.89892624e+05 
     709     711     1       1.54250000e-01   1.87443200e+05 
     709     717     1       1.54830000e-01   1.84179680e+05 
     711     712     1       1.09470000e-01   2.90754528e+05 
     711     713     1       1.55780000e-01   1.78983152e+05 
     713     714     1       1.09470000e-01   2.90754528e+05 
     715     713     1       1.54250000e-01   1.87443200e+05 
     715     716     1       1.09540000e-01   2.89892624e+05 
     715     717     1       1.54830000e-01   1.84179680e+05 
     717     718     1       1.09540000e-01   2.89892624e+05 
     717     719     1       1.09540000e-01   2.89892624e+05 
     720     721     1       1.39860000e-01   2.96436400e+05 
     721     722     1       1.08600000e-01   3.01825392e+05 
     723     724     1       1.40560000e-01   2.89591376e+05 
     723     758     1       1.40560000e-01   2.89591376e+05 
     724     725     1       1.39860000e-01   2.96436400e+05 
     725     726     1       1.08600000e-01   3.01825392e+05 
     725     727     1       1.39860000e-01   2.96436400e+05 
     727     728     1       1.51590000e-01   2.03342400e+05 
     727     757     1       1.39860000e-01   2.96436400e+05 
     728     729     1       1.09470000e-01   2.90754528e+05 
     728     730     1       1.55780000e-01   1.78983152e+05 
     728     752     1       1.54250000e-01   1.87443200e+05 
     730     731     1       1.09470000e-01   2.90754528e+05 
     730     732     1       1.54250000e-01   1.87443200e+05 
     730     757     1       1.51590000e-01   2.03342400e+05 
     732     733     1       1.09540000e-01   2.89892624e+05 
     732     734     1       1.54250000e-01   1.87443200e+05 
     732     754     1       1.54830000e-01   1.84179680e+05 
     734     735     1       1.09470000e-01   2.90754528e+05 
     734     736     1       1.51590000e-01   2.03342400e+05 
     734     750     1       1.55780000e-01   1.78983152e+05 
     736     737     1       1.39860000e-01   2.96436400e+05 
     736     745     1       1.39860000e-01   2.96436400e+05 
     737     738     1       1.39860000e-01   2.96436400e+05 
     737     750     1       1.51590000e-01   2.03342400e+05 
     738     739     1       1.51470000e-01   2.04103888e+05 
     738     743     1       1.39860000e-01   2.96436400e+05 
     739     740     1       1.09620000e-01   2.88905200e+05 
     739     741     1       1.09620000e-01   2.88905200e+05 
     739     742     1       1.09620000e-01   2.88905200e+05 
     743     744     1       1.39860000e-01   2.96436400e+05 
     743     2367    1       1.51590000e-01   2.03342400e+05 
     744     745     1       1.39860000e-01   2.96436400e+05 
     744     2369    1       1.51590000e-01   2.03342400e+05 
     745     746     1       1.51470000e-01   2.04103888e+05 
     746     747     1       1.09620000e-01   2.88905200e+05 
     746     748     1       1.09620000e-01   2.88905200e+05 
     746     749     1       1.09620000e-01   2.88905200e+05 
     750     751     1       1.09470000e-01   2.90754528e+05 
     750     752     1       1.54250000e-01   1.87443200e+05 
     752     753     1       1.09540000e-01   2.89892624e+05 
     752     754     1       1.54830000e-01   1.84179680e+05 
     754     755     1       1.09540000e-01   2.89892624e+05 
     754     756     1       1.09540000e-01   2.89892624e+05 
     757     758     1       1.39860000e-01   2.96436400e+05 
     758     759     1       1.08600000e-01   3.01825392e+05 
     760     761     1       1.09620000e-01   2.88905200e+05 
     760     762     1       1.09620000e-01   2.88905200e+05 
     760     763     1       1.09620000e-01   2.88905200e+05 
     760     764     1       1.53720000e-01   1.90489152e+05 
     764     765     1       1.53720000e-01   1.90489152e+05 
     764     769     1       1.51510000e-01   2.03844480e+05 
     764     793     1       1.51510000e-01   2.03844480e+05 
     765     766     1       1.09620000e-01   2.88905200e+05 
     765     767     1       1.09620000e-01   2.88905200e+05 
     765     768     1       1.09620000e-01   2.88905200e+05 
     769     770     1       1.40560000e-01   2.89591376e+05 
     769     790     1       1.39860000e-01   2.96436400e+05 
     770     771     1       1.40560000e-01   2.89591376e+05 
     770     792     1       1.48290000e-01   2.25408816e+05 
     771     772     1       1.08600000e-01   3.01825392e+05 
     771     773     1       1.39860000e-01   2.96436400e+05 
     773     774     1       1.51590000e-01   2.03342400e+05 
     773     789     1       1.39860000e-01   2.96436400e+05 
     774     775     1       1.09470000e-01   2.90754528e+05 
     774     776     1       1.55780000e-01   1.78983152e+05 
     774     784     1       1.54250000e-01   1.87443200e+05 
     776     777     1       1.09470000e-01   2.90754528e+05 
     776     778     1       1.54250000e-01   1.87443200e+05 
     776     789     1       1.51590000e-01   2.03342400e+05 
     778     779     1       1.09540000e-01   2.89892624e+05 
     778     780     1       1.54250000e-01   1.87443200e+05 
     778     786     1       1.54830000e-01   1.84179680e+05 
     780     781     1       1.09470000e-01   2.90754528e+05 
     780     782     1       1.55780000e-01   1.78983152e+05 
     782     783     1       1.09470000e-01   2.90754528e+05 
     784     782     1       1.54250000e-01   1.87443200e+05 
     784     785     1       1.09540000e-01   2.89892624e+05 
     784     786     1       1.54830000e-01   1.84179680e+05 
     786     787     1       1.09540000e-01   2.89892624e+05 
     786     788     1       1.09540000e-01   2.89892624e+05 
     789     790     1       1.39860000e-01   2.96436400e+05 
     790     791     1       1.08600000e-01   3.01825392e+05 
     792     793     1       1.40560000e-01   2.89591376e+05 
     792     827     1       1.40560000e-01   2.89591376e+05 
     793     794     1       1.39860000e-01   2.96436400e+05 
     794     795     1       1.08600000e-01   3.01825392e+05 
     794     796     1       1.39860000e-01   2.96436400e+05 
     796     797     1       1.51590000e-01   2.03342400e+05 
     796     826     1       1.39860000e-01   2.96436400e+05 
     797     798     1       1.09470000e-01   2.90754528e+05 
     797     799     1       1.55780000e-01   1.78983152e+05 
     797     821     1       1.54250000e-01   1.87443200e+05 
     799     800     1       1.09470000e-01   2.90754528e+05 
     799     801     1       1.54250000e-01   1.87443200e+05 
     799     826     1       1.51590000e-01   2.03342400e+05 
     801     802     1       1.09540000e-01   2.89892624e+05 
     801     803     1       1.54250000e-01   1.87443200e+05 
     801     823     1       1.54830000e-01   1.84179680e+05 
     803     804     1       1.09470000e-01   2.90754528e+05 
     803     805     1       1.51590000e-01   2.03342400e+05 
     803     819     1       1.55780000e-01   1.78983152e+05 
     805     806     1       1.39860000e-01   2.96436400e+05 
     805     814     1       1.39860000e-01   2.96436400e+05 
     806     807     1       1.39860000e-01   2.96436400e+05 
     806     819     1       1.51590000e-01   2.03342400e+05 
     807     808     1       1.51470000e-01   2.04103888e+05 
     807     812     1       1.39860000e-01   2.96436400e+05 
     808     809     1       1.09620000e-01   2.88905200e+05 
     808     810     1       1.09620000e-01   2.88905200e+05 
     808     811     1       1.09620000e-01   2.88905200e+05 
     812     813     1       1.39860000e-01   2.96436400e+05 
     812     3473    1       1.51590000e-01   2.03342400e+05 
     813     814     1       1.39860000e-01   2.96436400e+05 
     813     3471    1       1.51590000e-01   2.03342400e+05 
     814     815     1       1.51470000e-01   2.04103888e+05 
     815     816     1       1.09620000e-01   2.88905200e+05 
     815     817     1       1.09620000e-01   2.88905200e+05 
     815     818     1       1.09620000e-01   2.88905200e+05 
     819     820     1       1.09470000e-01   2.90754528e+05 
     819     821     1       1.54250000e-01   1.87443200e+05 
     821     822     1       1.09540000e-01   2.89892624e+05 
     821     823     1       1.54830000e-01   1.84179680e+05 
     823     824     1       1.09540000e-01   2.89892624e+05 
     823     825     1       1.09540000e-01   2.89892624e+05 
     826     827     1       1.39860000e-01   2.96436400e+05 
     827     828     1       1.08600000e-01   3.01825392e+05 
     829     830     1       1.09620000e-01   2.88905200e+05 
     829     831     1       1.09620000e-01   2.88905200e+05 
     829     832     1       1.09620000e-01   2.88905200e+05 
     829     833     1       1.53720000e-01   1.90489152e+05 
     833     834     1       1.53720000e-01   1.90489152e+05 
     833     838     1       1.51510000e-01   2.03844480e+05 
     833     862     1       1.51510000e-01   2.03844480e+05 
     834     835     1       1.09620000e-01   2.88905200e+05 
     834     836     1       1.09620000e-01   2.88905200e+05 
     834     837     1       1.09620000e-01   2.88905200e+05 
     838     839     1       1.40560000e-01   2.89591376e+05 
     838     859     1       1.39860000e-01   2.96436400e+05 
     839     840     1       1.40560000e-01   2.89591376e+05 
     839     861     1       1.48290000e-01   2.25408816e+05 
     840     841     1       1.08600000e-01   3.01825392e+05 
     840     842     1       1.39860000e-01   2.96436400e+05 
     842     843     1       1.51590000e-01   2.03342400e+05 
     842     858     1       1.39860000e-01   2.96436400e+05 
     843     844     1       1.09470000e-01   2.90754528e+05 
     843     845     1       1.55780000e-01   1.78983152e+05 
     843     853     1       1.54250000e-01   1.87443200e+05 
     845     846     1       1.09470000e-01   2.90754528e+05 
     845     847     1       1.54250000e-01   1.87443200e+05 
     845     858     1       1.51590000e-01   2.03342400e+05 
     847     848     1       1.09540000e-01   2.89892624e+05 
     847     849     1       1.54250000e-01   1.87443200e+05 
     847     855     1       1.54830000e-01   1.84179680e+05 
     849     850     1       1.09470000e-01   2.90754528e+05 
     849     851     1       1.55780000e-01   1.78983152e+05 
     851     852     1       1.09470000e-01   2.90754528e+05 
     853     851     1       1.54250000e-01   1.87443200e+05 
     853     854     1       1.09540000e-01   2.89892624e+05 
     853     855     1       1.54830000e-01   1.84179680e+05 
     855     856     1       1.09540000e-01   2.89892624e+05 
     855     857     1       1.09540000e-01   2.89892624e+05 
     858     859     1       1.39860000e-01   2.96436400e+05 
     859     860     1       1.08600000e-01   3.01825392e+05 
     861     862     1       1.40560000e-01   2.89591376e+05 
     861     896     1       1.40560000e-01   2.89591376e+05 
     862     863     1       1.39860000e-01   2.96436400e+05 
     863     864     1       1.08600000e-01   3.01825392e+05 
     863     865     1       1.39860000e-01   2.96436400e+05 
     865     866     1       1.51590000e-01   2.03342400e+05 
     865     895     1       1.39860000e-01   2.96436400e+05 
     866     867     1       1.09470000e-01   2.90754528e+05 
     866     868     1       1.55780000e-01   1.78983152e+05 
     866     890     1       1.54250000e-01   1.87443200e+05 
     868     869     1       1.09470000e-01   2.90754528e+05 
     868     870     1       1.54250000e-01   1.87443200e+05 
     868     895     1       1.51590000e-01   2.03342400e+05 
     870     871     1       1.09540000e-01   2.89892624e+05 
     870     872     1       1.54250000e-01   1.87443200e+05 
     870     892     1       1.54830000e-01   1.84179680e+05 
     872     873     1       1.09470000e-01   2.90754528e+05 
     872     874     1       1.51590000e-01   2.03342400e+05 
     872     888     1       1.55780000e-01   1.78983152e+05 
     874     875     1       1.39860000e-01   2.96436400e+05 
     874     883     1       1.39860000e-01   2.96436400e+05 
     875     876     1       1.39860000e-01   2.96436400e+05 
     875     888     1       1.51590000e-01   2.03342400e+05 
     876     877     1       1.51470000e-01   2.04103888e+05 
     876     881     1       1.39860000e-01   2.96436400e+05 
     877     878     1       1.09620000e-01   2.88905200e+05 
     877     879     1       1.09620000e-01   2.88905200e+05 
     877     880     1       1.09620000e-01   2.88905200e+05 
     881     159     1       1.51590000e-01   2.03342400e+05 
     881     882     1       1.39860000e-01   2.96436400e+05 
     882     161     1       1.51590000e-01   2.03342400e+05 
     882     883     1       1.39860000e-01   2.96436400e+05 
     883     884     1       1.51470000e-01   2.04103888e+05 
     884     885     1       1.09620000e-01   2.88905200e+05 
     884     886     1       1.09620000e-01   2.88905200e+05 
     884     887     1       1.09620000e-01   2.88905200e+05 
     888     889     1       1.09470000e-01   2.90754528e+05 
     888     890     1       1.54250000e-01   1.87443200e+05 
     890     891     1       1.09540000e-01   2.89892624e+05 
     890     892     1       1.54830000e-01   1.84179680e+05 
     892     893     1       1.09540000e-01   2.89892624e+05 
     892     894     1       1.09540000e-01   2.89892624e+05 
     895     896     1       1.39860000e-01   2.96436400e+05 
     896     897     1       1.08600000e-01   3.01825392e+05 
     898     899     1       1.09620000e-01   2.88905200e+05 
     898     900     1       1.09620000e-01   2.88905200e+05 
     898     901     1       1.09620000e-01   2.88905200e+05 
     898     902     1       1.53720000e-01   1.90489152e+05 
     902     903     1       1.53720000e-01   1.90489152e+05 
     902     907     1       1.51510000e-01   2.03844480e+05 
     902     931     1       1.51510000e-01   2.03844480e+05 
     903     904     1       1.09620000e-01   2.88905200e+05 
     903     905     1       1.09620000e-01   2.88905200e+05 
     903     906     1       1.09620000e-01   2.88905200e+05 
     907     908     1       1.40560000e-01   2.89591376e+05 
     907     928     1       1.39860000e-01   2.96436400e+05 
     908     909     1       1.40560000e-01   2.89591376e+05 
     908     930     1       1.48290000e-01   2.25408816e+05 
     909     910     1       1.08600000e-01   3.01825392e+05 
     909     911     1       1.39860000e-01   2.96436400e+05 
     911     912     1       1.51590000e-01   2.03342400e+05 
     911     927     1       1.39860000e-01   2.96436400e+05 
     912     913     1       1.09470000e-01   2.90754528e+05 
     912     914     1       1.55780000e-01   1.78983152e+05 
     912     922     1       1.54250000e-01   1.87443200e+05 
     914     915     1       1.09470000e-01   2.90754528e+05 
     914     916     1       1.54250000e-01   1.87443200e+05 
     914     927     1       1.51590000e-01   2.03342400e+05 
     916     917     1       1.09540000e-01   2.89892624e+05 
     916     918     1       1.54250000e-01   1.87443200e+05 
     916     924     1       1.54830000e-01   1.84179680e+05 
     918     919     1       1.09470000e-01   2.90754528e+05 
     918     920     1       1.55780000e-01   1.78983152e+05 
     920     921     1       1.09470000e-01   2.90754528e+05 
     922     920     1       1.54250000e-01   1.87443200e+05 
     922     923     1       1.09540000e-01   2.89892624e+05 
     922     924     1       1.54830000e-01   1.84179680e+05 
     924     925     1       1.09540000e-01   2.89892624e+05 
     924     926     1       1.09540000e-01   2.89892624e+05 
     927     928     1       1.39860000e-01   2.96436400e+05 
     928     929     1       1.08600000e-01   3.01825392e+05 
     930     931     1       1.40560000e-01   2.89591376e+05 
     930     965     1       1.40560000e-01   2.89591376e+05 
     931     932     1       1.39860000e-01   2.96436400e+05 
     932     933     1       1.08600000e-01   3.01825392e+05 
     932     934     1       1.39860000e-01   2.96436400e+05 
     934     935     1       1.51590000e-01   2.03342400e+05 
     934     964     1       1.39860000e-01   2.96436400e+05 
     935     936     1       1.09470000e-01   2.90754528e+05 
     935     937     1       1.55780000e-01   1.78983152e+05 
     935     959     1       1.54250000e-01   1.87443200e+05 
     937     938     1       1.09470000e-01   2.90754528e+05 
     937     939     1       1.54250000e-01   1.87443200e+05 
     937     964     1       1.51590000e-01   2.03342400e+05 
     939     940     1       1.09540000e-01   2.89892624e+05 
     939     941     1       1.54250000e-01   1.87443200e+05 
     939     961     1       1.54830000e-01   1.84179680e+05 
     941     942     1       1.09470000e-01   2.90754528e+05 
     941     943     1       1.51590000e-01   2.03342400e+05 
     941     957     1       1.55780000e-01   1.78983152e+05 
     943     944     1       1.39860000e-01   2.96436400e+05 
     943     952     1       1.39860000e-01   2.96436400e+05 
     944     945     1       1.39860000e-01   2.96436400e+05 
     944     957     1       1.51590000e-01   2.03342400e+05 
     945     946     1       1.51470000e-01   2.04103888e+05 
     945     950     1       1.39860000e-01   2.96436400e+05 
     946     947     1       1.09620000e-01   2.88905200e+05 
     946     948     1       1.09620000e-01   2.88905200e+05 
     946     949     1       1.09620000e-01   2.88905200e+05 
     950     951     1       1.39860000e-01   2.96436400e+05 
     950     4023    1       1.51590000e-01   2.03342400e+05 
     951     952     1       1.39860000e-01   2.96436400e+05 
     951     4025    1       1.51590000e-01   2.03342400e+05 
     952     953     1       1.51470000e-01   2.04103888e+05 
     953     954     1       1.09620000e-01   2.88905200e+05 
     953     955     1       1.09620000e-01   2.88905200e+05 
     953     956     1       1.09620000e-01   2.88905200e+05 
     957     958     1       1.09470000e-01   2.90754528e+05 
     957     959     1       1.54250000e-01   1.87443200e+05 
     959     960     1       1.09540000e-01   2.89892624e+05 
     959     961     1       1.54830000e-01   1.84179680e+05 
     961     962     1       1.09540000e-01   2.89892624e+05 
     961     963     1       1.09540000e-01   2.89892624e+05 
     964     965     1       1.39860000e-01   2.96436400e+05 
     965     966     1       1.08600000e-01   3.01825392e+05 
     967     968     1       1.09620000e-01   2.88905200e+05 
     967     969     1       1.09620000e-01   2.88905200e+05 
     967     970     1       1.09620000e-01   2.88905200e+05 
     967     971     1       1.53720000e-01   1.90489152e+05 
     971     972     1       1.53720000e-01   1.90489152e+05 
     971     976     1       1.51510000e-01   2.03844480e+05 
     971     1000    1       1.51510000e-01   2.03844480e+05 
     972     973     1       1.09620000e-01   2.88905200e+05 
     972     974     1       1.09620000e-01   2.88905200e+05 
     972     975     1       1.09620000e-01   2.88905200e+05 
     976     977     1       1.40560000e-01   2.89591376e+05 
     976     997     1       1.39860000e-01   2.96436400e+05 
     977     978     1       1.40560000e-01   2.89591376e+05 
     977     999     1       1.48290000e-01   2.25408816e+05 
     978     979     1       1.08600000e-01   3.01825392e+05 
     978     980     1       1.39860000e-01   2.96436400e+05 
     980     981     1       1.51590000e-01   2.03342400e+05 
     980     996     1       1.39860000e-01   2.96436400e+05 
     981     982     1       1.09470000e-01   2.90754528e+05 
     981     983     1       1.55780000e-01   1.78983152e+05 
     981     991     1       1.54250000e-01   1.87443200e+05 
     983     984     1       1.09470000e-01   2.90754528e+05 
     983     985     1       1.54250000e-01   1.87443200e+05 
     983     996     1       1.51590000e-01   2.03342400e+05 
     985     986     1       1.09540000e-01   2.89892624e+05 
     985     987     1       1.54250000e-01   1.87443200e+05 
     985     993     1       1.54830000e-01   1.84179680e+05 
     987     988     1       1.09470000e-01   2.90754528e+05 
     987     989     1       1.55780000e-01   1.78983152e+05 
     989     990     1       1.09470000e-01   2.90754528e+05 
     991     989     1       1.54250000e-01   1.87443200e+05 
     991     992     1       1.09540000e-01   2.89892624e+05 
     991     993     1       1.54830000e-01   1.84179680e+05 
     993     994     1       1.09540000e-01   2.89892624e+05 
     993     995     1       1.09540000e-01   2.89892624e+05 
     996     997     1       1.39860000e-01   2.96436400e+05 
     997     998     1       1.08600000e-01   3.01825392e+05 
     999     1000    1       1.40560000e-01   2.89591376e+05 
     999     1034    1       1.40560000e-01   2.89591376e+05 
     1000    1001    1       1.39860000e-01   2.96436400e+05 
     1001    1002    1       1.08600000e-01   3.01825392e+05 
     1001    1003    1       1.39860000e-01   2.96436400e+05 
     1003    1004    1       1.51590000e-01   2.03342400e+05 
     1003    1033    1       1.39860000e-01   2.96436400e+05 
     1004    1005    1       1.09470000e-01   2.90754528e+05 
     1004    1006    1       1.55780000e-01   1.78983152e+05 
     1004    1028    1       1.54250000e-01   1.87443200e+05 
     1006    1007    1       1.09470000e-01   2.90754528e+05 
     1006    1008    1       1.54250000e-01   1.87443200e+05 
     1006    1033    1       1.51590000e-01   2.03342400e+05 
     1008    1009    1       1.09540000e-01   2.89892624e+05 
     1008    1010    1       1.54250000e-01   1.87443200e+05 
     1008    1030    1       1.54830000e-01   1.84179680e+05 
     1010    1011    1       1.09470000e-01   2.90754528e+05 
     1010    1012    1       1.51590000e-01   2.03342400e+05 
     1010    1026    1       1.55780000e-01   1.78983152e+05 
     1012    1013    1       1.39860000e-01   2.96436400e+05 
     1012    1021    1       1.39860000e-01   2.96436400e+05 
     1013    1014    1       1.39860000e-01   2.96436400e+05 
     1013    1026    1       1.51590000e-01   2.03342400e+05 
     1014    1015    1       1.51470000e-01   2.04103888e+05 
     1014    1019    1       1.39860000e-01   2.96436400e+05 
     1015    1016    1       1.09620000e-01   2.88905200e+05 
     1015    1017    1       1.09620000e-01   2.88905200e+05 
     1015    1018    1       1.09620000e-01   2.88905200e+05 
     1019    1020    1       1.39860000e-01   2.96436400e+05 
     1019    5334    1       1.51590000e-01   2.03342400e+05 
     1020    1021    1       1.39860000e-01   2.96436400e+05 
     1020    5336    1       1.51590000e-01   2.03342400e+05 
     1021    1022    1       1.51470000e-01   2.04103888e+05 
     1022    1023    1       1.09620000e-01   2.88905200e+05 
     1022    1024    1       1.09620000e-01   2.88905200e+05 
     1022    1025    1       1.09620000e-01   2.88905200e+05 
     1026    1027    1       1.09470000e-01   2.90754528e+05 
     1026    1028    1       1.54250000e-01   1.87443200e+05 
     1028    1029    1       1.09540000e-01   2.89892624e+05 
     1028    1030    1       1.54830000e-01   1.84179680e+05 
     1030    1031    1       1.09540000e-01   2.89892624e+05 
     1030    1032    1       1.09540000e-01   2.89892624e+05 
     1033    1034    1       1.39860000e-01   2.96436400e+05 
     1034    1035    1       1.08600000e-01   3.01825392e+05 
     1036    1037    1       1.09620000e-01   2.88905200e+05 
     1036    1038    1       1.09620000e-01   2.88905200e+05 
     1036    1039    1       1.09620000e-01   2.88905200e+05 
     1036    1040    1       1.53720000e-01   1.90489152e+05 
     1040    1041    1       1.53720000e-01   1.90489152e+05 
     1040    1045    1       1.51510000e-01   2.03844480e+05 
     1040    1069    1       1.51510000e-01   2.03844480e+05 
     1041    1042    1       1.09620000e-01   2.88905200e+05 
     1041    1043    1       1.09620000e-01   2.88905200e+05 
     1041    1044    1       1.09620000e-01   2.88905200e+05 
     1045    1046    1       1.40560000e-01   2.89591376e+05 
     1045    1066    1       1.39860000e-01   2.96436400e+05 
     1046    1047    1       1.40560000e-01   2.89591376e+05 
     1046    1068    1       1.48290000e-01   2.25408816e+05 
     1047    1048    1       1.08600000e-01   3.01825392e+05 
     1047    1049    1       1.39860000e-01   2.96436400e+05 
     1049    1050    1       1.51590000e-01   2.03342400e+05 
     1049    1065    1       1.39860000e-01   2.96436400e+05 
     1050    1051    1       1.09470000e-01   2.90754528e+05 
     1050    1052    1       1.55780000e-01   1.78983152e+05 
     1050    1060    1       1.54250000e-01   1.87443200e+05 
     1052    1053    1       1.09470000e-01   2.90754528e+05 
     1052    1054    1       1.54250000e-01   1.87443200e+05 
     1052    1065    1       1.51590000e-01   2.03342400e+05 
     1054    1055    1       1.09540000e-01   2.89892624e+05 
     1054    1056    1       1.54250000e-01   1.87443200e+05 
     1054    1062    1       1.54830000e-01   1.84179680e+05 
     1056    1057    1       1.09470000e-01   2.90754528e+05 
     1056    1058    1       1.55780000e-01   1.78983152e+05 
     1058    1059    1       1.09470000e-01   2.90754528e+05 
     1060    1058    1       1.54250000e-01   1.87443200e+05 
     1060    1061    1       1.09540000e-01   2.89892624e+05 
     1060    1062    1       1.54830000e-01   1.84179680e+05 
     1062    1063    1       1.09540000e-01   2.89892624e+05 
     1062    1064    1       1.09540000e-01   2.89892624e+05 
     1065    1066    1       1.39860000e-01   2.96436400e+05 
     1066    1067    1       1.08600000e-01   3.01825392e+05 
     1068    1069    1       1.40560000e-01   2.89591376e+05 
     1068    1103    1       1.40560000e-01   2.89591376e+05 
     1069    1070    1       1.39860000e-01   2.96436400e+05 
     1070    1071    1       1.08600000e-01   3.01825392e+05 
     1070    1072    1       1.39860000e-01   2.96436400e+05 
     1072    1073    1       1.51590000e-01   2.03342400e+05 
     1072    1102    1       1.39860000e-01   2.96436400e+05 
     1073    1074    1       1.09470000e-01   2.90754528e+05 
     1073    1075    1       1.55780000e-01   1.78983152e+05 
     1073    1097    1       1.54250000e-01   1.87443200e+05 
     1075    1076    1       1.09470000e-01   2.90754528e+05 
     1075    1077    1       1.54250000e-01   1.87443200e+05 
     1075    1102    1       1.51590000e-01   2.03342400e+05 
     1077    1078    1       1.09540000e-01   2.89892624e+05 
     1077    1079    1       1.54250000e-01   1.87443200e+05 
     1077    1099    1       1.54830000e-01   1.84179680e+05 
     1079    1080    1       1.09470000e-01   2.90754528e+05 
     1079    1081    1       1.51590000e-01   2.03342400e+05 
     1079    1095    1       1.55780000e-01   1.78983152e+05 
     1081    1082    1       1.39860000e-01   2.96436400e+05 
     1081    1090    1       1.39860000e-01   2.96436400e+05 
     1082    1083    1       1.39860000e-01   2.96436400e+05 
     1082    1095    1       1.51590000e-01   2.03342400e+05 
     1083    1084    1       1.51470000e-01   2.04103888e+05 
     1083    1088    1       1.39860000e-01   2.96436400e+05 
     1084    1085    1       1.09620000e-01   2.88905200e+05 
     1084    1086    1       1.09620000e-01   2.88905200e+05 
     1084    1087    1       1.09620000e-01   2.88905200e+05 
     1088    1089    1       1.39860000e-01   2.96436400e+05 
     1088    4161    1       1.51590000e-01   2.03342400e+05 
     1089    1090    1       1.39860000e-01   2.96436400e+05 
     1089    4163    1       1.51590000e-01   2.03342400e+05 
     1090    1091    1       1.51470000e-01   2.04103888e+05 
     1091    1092    1       1.09620000e-01   2.88905200e+05 
     1091    1093    1       1.09620000e-01   2.88905200e+05 
     1091    1094    1       1.09620000e-01   2.88905200e+05 
     1095    1096    1       1.09470000e-01   2.90754528e+05 
     1095    1097    1       1.54250000e-01   1.87443200e+05 
     1097    1098    1       1.09540000e-01   2.89892624e+05 
     1097    1099    1       1.54830000e-01   1.84179680e+05 
     1099    1100    1       1.09540000e-01   2.89892624e+05 
     1099    1101    1       1.09540000e-01   2.89892624e+05 
     1102    1103    1       1.39860000e-01   2.96436400e+05 
     1103    1104    1       1.08600000e-01   3.01825392e+05 
     1105    1106    1       1.09620000e-01   2.88905200e+05 
     1105    1107    1       1.09620000e-01   2.88905200e+05 
     1105    1108    1       1.09620000e-01   2.88905200e+05 
     1105    1109    1       1.53720000e-01   1.90489152e+05 
     1109    1110    1       1.53720000e-01   1.90489152e+05 
     1109    1114    1       1.51510000e-01   2.03844480e+05 
     1109    1138    1       1.51510000e-01   2.03844480e+05 
     1110    1111    1       1.09620000e-01   2.88905200e+05 
     1110    1112    1       1.09620000e-01   2.88905200e+05 
     1110    1113    1       1.09620000e-01   2.88905200e+05 
     1114    1115    1       1.40560000e-01   2.89591376e+05 
     1114    1135    1       1.39860000e-01   2.96436400e+05 
     1115    1116    1       1.40560000e-01   2.89591376e+05 
     1115    1137    1       1.48290000e-01   2.25408816e+05 
     1116    1117    1       1.08600000e-01   3.01825392e+05 
     1116    1118    1       1.39860000e-01   2.96436400e+05 
     1118    1119    1       1.51590000e-01   2.03342400e+05 
     1118    1134    1       1.39860000e-01   2.96436400e+05 
     1119    1120    1       1.09470000e-01   2.90754528e+05 
     1119    1121    1       1.55780000e-01   1.78983152e+05 
     1119    1129    1       1.54250000e-01   1.87443200e+05 
     1121    1122    1       1.09470000e-01   2.90754528e+05 
     1121    1123    1       1.54250000e-01   1.87443200e+05 
     1121    1134    1       1.51590000e-01   2.03342400e+05 
     1123    1124    1       1.09540000e-01   2.89892624e+05 
     1123    1125    1       1.54250000e-01   1.87443200e+05 
     1123    1131    1       1.54830000e-01   1.84179680e+05 
     1125    1126    1       1.09470000e-01   2.90754528e+05 
     1125    1127    1       1.55780000e-01   1.78983152e+05 
     1127    1128    1       1.09470000e-01   2.90754528e+05 
     1129    1127    1       1.54250000e-01   1.87443200e+05 
     1129    1130    1       1.09540000e-01   2.89892624e+05 
     1129    1131    1       1.54830000e-01   1.84179680e+05 
     1131    1132    1       1.09540000e-01   2.89892624e+05 
     1131    1133    1       1.09540000e-01   2.89892624e+05 
     1134    1135    1       1.39860000e-01   2.96436400e+05 
     1135    1136    1       1.08600000e-01   3.01825392e+05 
     1137    1138    1       1.40560000e-01   2.89591376e+05 
     1137    1172    1       1.40560000e-01   2.89591376e+05 
     1138    1139    1       1.39860000e-01   2.96436400e+05 
     1139    1140    1       1.08600000e-01   3.01825392e+05 
     1139    1141    1       1.39860000e-01   2.96436400e+05 
     1141    1142    1       1.51590000e-01   2.03342400e+05 
     1141    1171    1       1.39860000e-01   2.96436400e+05 
     1142    1143    1       1.09470000e-01   2.90754528e+05 
     1142    1144    1       1.55780000e-01   1.78983152e+05 
     1142    1166    1       1.54250000e-01   1.87443200e+05 
     1144    1145    1       1.09470000e-01   2.90754528e+05 
     1144    1146    1       1.54250000e-01   1.87443200e+05 
     1144    1171    1       1.51590000e-01   2.03342400e+05 
     1146    1147    1       1.09540000e-01   2.89892624e+05 
     1146    1148    1       1.54250000e-01   1.87443200e+05 
     1146    1168    1       1.54830000e-01   1.84179680e+05 
     1148    1149    1       1.09470000e-01   2.90754528e+05 
     1148    1150    1       1.51590000e-01   2.03342400e+05 
     1148    1164    1       1.55780000e-01   1.78983152e+05 
     1150    1151    1       1.39860000e-01   2.96436400e+05 
     1150    1159    1       1.39860000e-01   2.96436400e+05 
     1151    1152    1       1.39860000e-01   2.96436400e+05 
     1151    1164    1       1.51590000e-01   2.03342400e+05 
     1152    1153    1       1.51470000e-01   2.04103888e+05 
     1152    1157    1       1.39860000e-01   2.96436400e+05 
     1153    1154    1       1.09620000e-01   2.88905200e+05 
     1153    1155    1       1.09620000e-01   2.88905200e+05 
     1153    1156    1       1.09620000e-01   2.88905200e+05 
     1157    1158    1       1.39860000e-01   2.96436400e+05 
     1157    2091    1       1.51590000e-01   2.03342400e+05 
     1158    1159    1       1.39860000e-01   2.96436400e+05 
     1158    2093    1       1.51590000e-01   2.03342400e+05 
     1159    1160    1       1.51470000e-01   2.04103888e+05 
     1160    1161    1       1.09620000e-01   2.88905200e+05 
     1160    1162    1       1.09620000e-01   2.88905200e+05 
     1160    1163    1       1.09620000e-01   2.88905200e+05 
     1164    1165    1       1.09470000e-01   2.90754528e+05 
     1164    1166    1       1.54250000e-01   1.87443200e+05 
     1166    1167    1       1.09540000e-01   2.89892624e+05 
     1166    1168    1       1.54830000e-01   1.84179680e+05 
     1168    1169    1       1.09540000e-01   2.89892624e+05 
     1168    1170    1       1.09540000e-01   2.89892624e+05 
     1171    1172    1       1.39860000e-01   2.96436400e+05 
     1172    1173    1       1.08600000e-01   3.01825392e+05 
     1174    1175    1       1.09620000e-01   2.88905200e+05 
     1174    1176    1       1.09620000e-01   2.88905200e+05 
     1174    1177    1       1.09620000e-01   2.88905200e+05 
     1174    1178    1       1.53720000e-01   1.90489152e+05 
     1178    1179    1       1.53720000e-01   1.90489152e+05 
     1178    1183    1       1.51510000e-01   2.03844480e+05 
     1178    1207    1       1.51510000e-01   2.03844480e+05 
     1179    1180    1       1.09620000e-01   2.88905200e+05 
     1179    1181    1       1.09620000e-01   2.88905200e+05 
     1179    1182    1       1.09620000e-01   2.88905200e+05 
     1183    1184    1       1.40560000e-01   2.89591376e+05 
     1183    1204    1       1.39860000e-01   2.96436400e+05 
     1184    1185    1       1.40560000e-01   2.89591376e+05 
     1184    1206    1       1.48290000e-01   2.25408816e+05 
     1185    1186    1       1.08600000e-01   3.01825392e+05 
     1185    1187    1       1.39860000e-01   2.96436400e+05 
     1187    1188    1       1.51590000e-01   2.03342400e+05 
     1187    1203    1       1.39860000e-01   2.96436400e+05 
     1188    1189    1       1.09470000e-01   2.90754528e+05 
     1188    1190    1       1.55780000e-01   1.78983152e+05 
     1188    1198    1       1.54250000e-01   1.87443200e+05 
     1190    1191    1       1.09470000e-01   2.90754528e+05 
     1190    1192    1       1.54250000e-01   1.87443200e+05 
     1190    1203    1       1.51590000e-01   2.03342400e+05 
     1192    1193    1       1.09540000e-01   2.89892624e+05 
     1192    1194    1       1.54250000e-01   1.87443200e+05 
     1192    1200    1       1.54830000e-01   1.84179680e+05 
     1194    1195    1       1.09470000e-01   2.90754528e+05 
     1194    1196    1       1.55780000e-01   1.78983152e+05 
     1196    1197    1       1.09470000e-01   2.90754528e+05 
     1198    1196    1       1.54250000e-01   1.87443200e+05 
     1198    1199    1       1.09540000e-01   2.89892624e+05 
     1198    1200    1       1.54830000e-01   1.84179680e+05 
     1200    1201    1       1.09540000e-01   2.89892624e+05 
     1200    1202    1       1.09540000e-01   2.89892624e+05 
     1203    1204    1       1.39860000e-01   2.96436400e+05 
     1204    1205    1       1.08600000e-01   3.01825392e+05 
     1206    1207    1       1.40560000e-01   2.89591376e+05 
     1206    1241    1       1.40560000e-01   2.89591376e+05 
     1207    1208    1       1.39860000e-01   2.96436400e+05 
     1208    1209    1       1.08600000e-01   3.01825392e+05 
     1208    1210    1       1.39860000e-01   2.96436400e+05 
     1210    1211    1       1.51590000e-01   2.03342400e+05 
     1210    1240    1       1.39860000e-01   2.96436400e+05 
     1211    1212    1       1.09470000e-01   2.90754528e+05 
     1211    1213    1       1.55780000e-01   1.78983152e+05 
     1211    1235    1       1.54250000e-01   1.87443200e+05 
     1213    1214    1       1.09470000e-01   2.90754528e+05 
     1213    1215    1       1.54250000e-01   1.87443200e+05 
     1213    1240    1       1.51590000e-01   2.03342400e+05 
     1215    1216    1       1.09540000e-01   2.89892624e+05 
     1215    1217    1       1.54250000e-01   1.87443200e+05 
     1215    1237    1       1.54830000e-01   1.84179680e+05 
     1217    1218    1       1.09470000e-01   2.90754528e+05 
     1217    1219    1       1.51590000e-01   2.03342400e+05 
     1217    1233    1       1.55780000e-01   1.78983152e+05 
     1219    1220    1       1.39860000e-01   2.96436400e+05 
     1219    1228    1       1.39860000e-01   2.96436400e+05 
     1220    1221    1       1.39860000e-01   2.96436400e+05 
     1220    1233    1       1.51590000e-01   2.03342400e+05 
     1221    1222    1       1.51470000e-01   2.04103888e+05 
     1221    1226    1       1.39860000e-01   2.96436400e+05 
     1222    1223    1       1.09620000e-01   2.88905200e+05 
     1222    1224    1       1.09620000e-01   2.88905200e+05 
     1222    1225    1       1.09620000e-01   2.88905200e+05 
     1226    1227    1       1.39860000e-01   2.96436400e+05 
     1226    3197    1       1.51590000e-01   2.03342400e+05 
     1227    1228    1       1.39860000e-01   2.96436400e+05 
     1227    3195    1       1.51590000e-01   2.03342400e+05 
     1228    1229    1       1.51470000e-01   2.04103888e+05 
     1229    1230    1       1.09620000e-01   2.88905200e+05 
     1229    1231    1       1.09620000e-01   2.88905200e+05 
     1229    1232    1       1.09620000e-01   2.88905200e+05 
     1233    1234    1       1.09470000e-01   2.90754528e+05 
     1233    1235    1       1.54250000e-01   1.87443200e+05 
     1235    1236    1       1.09540000e-01   2.89892624e+05 
     1235    1237    1       1.54830000e-01   1.84179680e+05 
     1237    1238    1       1.09540000e-01   2.89892624e+05 
     1237    1239    1       1.09540000e-01   2.89892624e+05 
     1240    1241    1       1.39860000e-01   2.96436400e+05 
     1241    1242    1       1.08600000e-01   3.01825392e+05 
     1243    1244    1       1.09620000e-01   2.88905200e+05 
     1243    1245    1       1.09620000e-01   2.88905200e+05 
     1243    1246    1       1.09620000e-01   2.88905200e+05 
     1243    1247    1       1.53720000e-01   1.90489152e+05 
     1247    1248    1       1.53720000e-01   1.90489152e+05 
     1247    1252    1       1.51510000e-01   2.03844480e+05 
     1247    1276    1       1.51510000e-01   2.03844480e+05 
     1248    1249    1       1.09620000e-01   2.88905200e+05 
     1248    1250    1       1.09620000e-01   2.88905200e+05 
     1248    1251    1       1.09620000e-01   2.88905200e+05 
     1252    1253    1       1.40560000e-01   2.89591376e+05 
     1252    1273    1       1.39860000e-01   2.96436400e+05 
     1253    1254    1       1.40560000e-01   2.89591376e+05 
     1253    1275    1       1.48290000e-01   2.25408816e+05 
     1254    1255    1       1.08600000e-01   3.01825392e+05 
     1254    1256    1       1.39860000e-01   2.96436400e+05 
     1256    1257    1       1.51590000e-01   2.03342400e+05 
     1256    1272    1       1.39860000e-01   2.96436400e+05 
     1257    1258    1       1.09470000e-01   2.90754528e+05 
     1257    1259    1       1.55780000e-01   1.78983152e+05 
     1257    1267    1       1.54250000e-01   1.87443200e+05 
     1259    1260    1       1.09470000e-01   2.90754528e+05 
     1259    1261    1       1.54250000e-01   1.87443200e+05 
     1259    1272    1       1.51590000e-01   2.03342400e+05 
     1261    1262    1       1.09540000e-01   2.89892624e+05 
     1261    1263    1       1.54250000e-01   1.87443200e+05 
     1261    1269    1       1.54830000e-01   1.84179680e+05 
     1263    1264    1       1.09470000e-01   2.90754528e+05 
     1263    1265    1       1.55780000e-01   1.78983152e+05 
     1265    1266    1       1.09470000e-01   2.90754528e+05 
     1267    1265    1       1.54250000e-01   1.87443200e+05 
     1267    1268    1       1.09540000e-01   2.89892624e+05 
     1267    1269    1       1.54830000e-01   1.84179680e+05 
     1269    1270    1       1.09540000e-01   2.89892624e+05 
     1269    1271    1       1.09540000e-01   2.89892624e+05 
     1272    1273    1       1.39860000e-01   2.96436400e+05 
     1273    1274    1       1.08600000e-01   3.01825392e+05 
     1275    1276    1       1.40560000e-01   2.89591376e+05 
     1275    1310    1       1.40560000e-01   2.89591376e+05 
     1276    1277    1       1.39860000e-01   2.96436400e+05 
     1277    1278    1       1.08600000e-01   3.01825392e+05 
     1277    1279    1       1.39860000e-01   2.96436400e+05 
     1279    1280    1       1.51590000e-01   2.03342400e+05 
     1279    1309    1       1.39860000e-01   2.96436400e+05 
     1280    1281    1       1.09470000e-01   2.90754528e+05 
     1280    1282    1       1.55780000e-01   1.78983152e+05 
     1280    1304    1       1.54250000e-01   1.87443200e+05 
     1282    1283    1       1.09470000e-01   2.90754528e+05 
     1282    1284    1       1.54250000e-01   1.87443200e+05 
     1282    1309    1       1.51590000e-01   2.03342400e+05 
     1284    1285    1       1.09540000e-01   2.89892624e+05 
     1284    1286    1       1.54250000e-01   1.87443200e+05 
     1284    1306    1       1.54830000e-01   1.84179680e+05 
     1286    1287    1       1.09470000e-01   2.90754528e+05 
     1286    1288    1       1.51590000e-01   2.03342400e+05 
     1286    1302    1       1.55780000e-01   1.78983152e+05 
     1288    1289    1       1.39860000e-01   2.96436400e+05 
     1288    1297    1       1.39860000e-01   2.96436400e+05 
     1289    1290    1       1.39860000e-01   2.96436400e+05 
     1289    1302    1       1.51590000e-01   2.03342400e+05 
     1290    1291    1       1.51470000e-01   2.04103888e+05 
     1290    1295    1       1.39860000e-01   2.96436400e+05 
     1291    1292    1       1.09620000e-01   2.88905200e+05 
     1291    1293    1       1.09620000e-01   2.88905200e+05 
     1291    1294    1       1.09620000e-01   2.88905200e+05 
     1295    1296    1       1.39860000e-01   2.96436400e+05 
     1295    5817    1       1.51590000e-01   2.03342400e+05 
     1296    1297    1       1.39860000e-01   2.96436400e+05 
     1296    5819    1       1.51590000e-01   2.03342400e+05 
     1297    1298    1       1.51470000e-01   2.04103888e+05 
     1298    1299    1       1.09620000e-01   2.88905200e+05 
     1298    1300    1       1.09620000e-01   2.88905200e+05 
     1298    1301    1       1.09620000e-01   2.88905200e+05 
     1302    1303    1       1.09470000e-01   2.90754528e+05 
     1302    1304    1       1.54250000e-01   1.87443200e+05 
     1304    1305    1       1.09540000e-01   2.89892624e+05 
     1304    1306    1       1.54830000e-01   1.84179680e+05 
     1306    1307    1       1.09540000e-01   2.89892624e+05 
     1306    1308    1       1.09540000e-01   2.89892624e+05 
     1309    1310    1       1.39860000e-01   2.96436400e+05 
     1310    1311    1       1.08600000e-01   3.01825392e+05 
     1312    1313    1       1.09620000e-01   2.88905200e+05 
     1312    1314    1       1.09620000e-01   2.88905200e+05 
     1312    1315    1       1.09620000e-01   2.88905200e+05 
     1312    1316    1       1.53720000e-01   1.90489152e+05 
     1316    1317    1       1.53720000e-01   1.90489152e+05 
     1316    1321    1       1.51510000e-01   2.03844480e+05 
     1316    1345    1       1.51510000e-01   2.03844480e+05 
     1317    1318    1       1.09620000e-01   2.88905200e+05 
     1317    1319    1       1.09620000e-01   2.88905200e+05 
     1317    1320    1       1.09620000e-01   2.88905200e+05 
     1321    1322    1       1.40560000e-01   2.89591376e+05 
     1321    1342    1       1.39860000e-01   2.96436400e+05 
     1322    1323    1       1.40560000e-01   2.89591376e+05 
     1322    1344    1       1.48290000e-01   2.25408816e+05 
     1323    1324    1       1.08600000e-01   3.01825392e+05 
     1323    1325    1       1.39860000e-01   2.96436400e+05 
     1325    1326    1       1.51590000e-01   2.03342400e+05 
     1325    1341    1       1.39860000e-01   2.96436400e+05 
     1326    1327    1       1.09470000e-01   2.90754528e+05 
     1326    1328    1       1.55780000e-01   1.78983152e+05 
     1326    1336    1       1.54250000e-01   1.87443200e+05 
     1328    1329    1       1.09470000e-01   2.90754528e+05 
     1328    1330    1       1.54250000e-01   1.87443200e+05 
     1328    1341    1       1.51590000e-01   2.03342400e+05 
     1330    1331    1       1.09540000e-01   2.89892624e+05 
     1330    1332    1       1.54250000e-01   1.87443200e+05 
     1330    1338    1       1.54830000e-01   1.84179680e+05 
     1332    1333    1       1.09470000e-01   2.90754528e+05 
     1332    1334    1       1.55780000e-01   1.78983152e+05 
     1334    1335    1       1.09470000e-01   2.90754528e+05 
     1336    1334    1       1.54250000e-01   1.87443200e+05 
     1336    1337    1       1.09540000e-01   2.89892624e+05 
     1336    1338    1       1.54830000e-01   1.84179680e+05 
     1338    1339    1       1.09540000e-01   2.89892624e+05 
     1338    1340    1       1.09540000e-01   2.89892624e+05 
     1341    1342    1       1.39860000e-01   2.96436400e+05 
     1342    1343    1       1.08600000e-01   3.01825392e+05 
     1344    1345    1       1.40560000e-01   2.89591376e+05 
     1344    1379    1       1.40560000e-01   2.89591376e+05 
     1345    1346    1       1.39860000e-01   2.96436400e+05 
     1346    1347    1       1.08600000e-01   3.01825392e+05 
     1346    1348    1       1.39860000e-01   2.96436400e+05 
     1348    1349    1       1.51590000e-01   2.03342400e+05 
     1348    1378    1       1.39860000e-01   2.96436400e+05 
     1349    1350    1       1.09470000e-01   2.90754528e+05 
     1349    1351    1       1.55780000e-01   1.78983152e+05 
     1349    1373    1       1.54250000e-01   1.87443200e+05 
     1351    1352    1       1.09470000e-01   2.90754528e+05 
     1351    1353    1       1.54250000e-01   1.87443200e+05 
     1351    1378    1       1.51590000e-01   2.03342400e+05 
     1353    1354    1       1.09540000e-01   2.89892624e+05 
     1353    1355    1       1.54250000e-01   1.87443200e+05 
     1353    1375    1       1.54830000e-01   1.84179680e+05 
     1355    1356    1       1.09470000e-01   2.90754528e+05 
     1355    1357    1       1.51590000e-01   2.03342400e+05 
     1355    1371    1       1.55780000e-01   1.78983152e+05 
     1357    1358    1       1.39860000e-01   2.96436400e+05 
     1357    1366    1       1.39860000e-01   2.96436400e+05 
     1358    1359    1       1.39860000e-01   2.96436400e+05 
     1358    1371    1       1.51590000e-01   2.03342400e+05 
     1359    1360    1       1.51470000e-01   2.04103888e+05 
     1359    1364    1       1.39860000e-01   2.96436400e+05 
     1360    1361    1       1.09620000e-01   2.88905200e+05 
     1360    1362    1       1.09620000e-01   2.88905200e+05 
     1360    1363    1       1.09620000e-01   2.88905200e+05 
     1364    1365    1       1.39860000e-01   2.96436400e+05 
     1364    3126    1       1.51590000e-01   2.03342400e+05 
     1365    1366    1       1.39860000e-01   2.96436400e+05 
     1365    3128    1       1.51590000e-01   2.03342400e+05 
     1366    1367    1       1.51470000e-01   2.04103888e+05 
     1367    1368    1       1.09620000e-01   2.88905200e+05 
     1367    1369    1       1.09620000e-01   2.88905200e+05 
     1367    1370    1       1.09620000e-01   2.88905200e+05 
     1371    1372    1       1.09470000e-01   2.90754528e+05 
     1371    1373    1       1.54250000e-01   1.87443200e+05 
     1373    1374    1       1.09540000e-01   2.89892624e+05 
     1373    1375    1       1.54830000e-01   1.84179680e+05 
     1375    1376    1       1.09540000e-01   2.89892624e+05 
     1375    1377    1       1.09540000e-01   2.89892624e+05 
     1378    1379    1       1.39860000e-01   2.96436400e+05 
     1379    1380    1       1.08600000e-01   3.01825392e+05 
     1381    1382    1       1.09620000e-01   2.88905200e+05 
     1381    1383    1       1.09620000e-01   2.88905200e+05 
     1381    1384    1       1.09620000e-01   2.88905200e+05 
     1381    1385    1       1.53720000e-01   1.90489152e+05 
     1385    1386    1       1.53720000e-01   1.90489152e+05 
     1385    1390    1       1.51510000e-01   2.03844480e+05 
     1385    1414    1       1.51510000e-01   2.03844480e+05 
     1386    1387    1       1.09620000e-01   2.88905200e+05 
     1386    1388    1       1.09620000e-01   2.88905200e+05 
     1386    1389    1       1.09620000e-01   2.88905200e+05 
     1390    1391    1       1.40560000e-01   2.89591376e+05 
     1390    1411    1       1.39860000e-01   2.96436400e+05 
     1391    1392    1       1.40560000e-01   2.89591376e+05 
     1391    1413    1       1.48290000e-01   2.25408816e+05 
     1392    1393    1       1.08600000e-01   3.01825392e+05 
     1392    1394    1       1.39860000e-01   2.96436400e+05 
     1394    1395    1       1.51590000e-01   2.03342400e+05 
     1394    1410    1       1.39860000e-01   2.96436400e+05 
     1395    1396    1       1.09470000e-01   2.90754528e+05 
     1395    1397    1       1.55780000e-01   1.78983152e+05 
     1395    1405    1       1.54250000e-01   1.87443200e+05 
     1397    1398    1       1.09470000e-01   2.90754528e+05 
     1397    1399    1       1.54250000e-01   1.87443200e+05 
     1397    1410    1       1.51590000e-01   2.03342400e+05 
     1399    1400    1       1.09540000e-01   2.89892624e+05 
     1399    1401    1       1.54250000e-01   1.87443200e+05 
     1399    1407    1       1.54830000e-01   1.84179680e+05 
     1401    1402    1       1.09470000e-01   2.90754528e+05 
     1401    1403    1       1.55780000e-01   1.78983152e+05 
     1403    1404    1       1.09470000e-01   2.90754528e+05 
     1405    1403    1       1.54250000e-01   1.87443200e+05 
     1405    1406    1       1.09540000e-01   2.89892624e+05 
     1405    1407    1       1.54830000e-01   1.84179680e+05 
     1407    1408    1       1.09540000e-01   2.89892624e+05 
     1407    1409    1       1.09540000e-01   2.89892624e+05 
     1410    1411    1       1.39860000e-01   2.96436400e+05 
     1411    1412    1       1.08600000e-01   3.01825392e+05 
     1413    1414    1       1.40560000e-01   2.89591376e+05 
     1413    1448    1       1.40560000e-01   2.89591376e+05 
     1414    1415    1       1.39860000e-01   2.96436400e+05 
     1415    1416    1       1.08600000e-01   3.01825392e+05 
     1415    1417    1       1.39860000e-01   2.96436400e+05 
     1417    1418    1       1.51590000e-01   2.03342400e+05 
     1417    1447    1       1.39860000e-01   2.96436400e+05 
     1418    1419    1       1.09470000e-01   2.90754528e+05 
     1418    1420    1       1.55780000e-01   1.78983152e+05 
     1418    1442    1       1.54250000e-01   1.87443200e+05 
     1420    1421    1       1.09470000e-01   2.90754528e+05 
     1420    1422    1       1.54250000e-01   1.87443200e+05 
     1420    1447    1       1.51590000e-01   2.03342400e+05 
     1422    1423    1       1.09540000e-01   2.89892624e+05 
     1422    1424    1       1.54250000e-01   1.87443200e+05 
     1422    1444    1       1.54830000e-01   1.84179680e+05 
     1424    1425    1       1.09470000e-01   2.90754528e+05 
     1424    1426    1       1.51590000e-01   2.03342400e+05 
     1424    1440    1       1.55780000e-01   1.78983152e+05 
     1426    1427    1       1.39860000e-01   2.96436400e+05 
     1426    1435    1       1.39860000e-01   2.96436400e+05 
     1427    1428    1       1.39860000e-01   2.96436400e+05 
     1427    1440    1       1.51590000e-01   2.03342400e+05 
     1428    1429    1       1.51470000e-01   2.04103888e+05 
     1428    1433    1       1.39860000e-01   2.96436400e+05 
     1429    1430    1       1.09620000e-01   2.88905200e+05 
     1429    1431    1       1.09620000e-01   2.88905200e+05 
     1429    1432    1       1.09620000e-01   2.88905200e+05 
     1433    1434    1       1.39860000e-01   2.96436400e+05 
     1433    4301    1       1.51590000e-01   2.03342400e+05 
     1434    1435    1       1.39860000e-01   2.96436400e+05 
     1434    4299    1       1.51590000e-01   2.03342400e+05 
     1435    1436    1       1.51470000e-01   2.04103888e+05 
     1436    1437    1       1.09620000e-01   2.88905200e+05 
     1436    1438    1       1.09620000e-01   2.88905200e+05 
     1436    1439    1       1.09620000e-01   2.88905200e+05 
     1440    1441    1       1.09470000e-01   2.90754528e+05 
     1440    1442    1       1.54250000e-01   1.87443200e+05 
     1442    1443    1       1.09540000e-01   2.89892624e+05 
     1442    1444    1       1.54830000e-01   1.84179680e+05 
     1444    1445    1       1.09540000e-01   2.89892624e+05 
     1444    1446    1       1.09540000e-01   2.89892624e+05 
     1447    1448    1       1.39860000e-01   2.96436400e+05 
     1448    1449    1       1.08600000e-01   3.01825392e+05 
     1450    1451    1       1.09620000e-01   2.88905200e+05 
     1450    1452    1       1.09620000e-01   2.88905200e+05 
     1450    1453    1       1.09620000e-01   2.88905200e+05 
     1450    1454    1       1.53720000e-01   1.90489152e+05 
     1454    1455    1       1.53720000e-01   1.90489152e+05 
     1454    1459    1       1.51510000e-01   2.03844480e+05 
     1454    1483    1       1.51510000e-01   2.03844480e+05 
     1455    1456    1       1.09620000e-01   2.88905200e+05 
     1455    1457    1       1.09620000e-01   2.88905200e+05 
     1455    1458    1       1.09620000e-01   2.88905200e+05 
     1459    1460    1       1.40560000e-01   2.89591376e+05 
     1459    1480    1       1.39860000e-01   2.96436400e+05 
     1460    1461    1       1.40560000e-01   2.89591376e+05 
     1460    1482    1       1.48290000e-01   2.25408816e+05 
     1461    1462    1       1.08600000e-01   3.01825392e+05 
     1461    1463    1       1.39860000e-01   2.96436400e+05 
     1463    1464    1       1.51590000e-01   2.03342400e+05 
     1463    1479    1       1.39860000e-01   2.96436400e+05 
     1464    1465    1       1.09470000e-01   2.90754528e+05 
     1464    1466    1       1.55780000e-01   1.78983152e+05 
     1464    1474    1       1.54250000e-01   1.87443200e+05 
     1466    1467    1       1.09470000e-01   2.90754528e+05 
     1466    1468    1       1.54250000e-01   1.87443200e+05 
     1466    1479    1       1.51590000e-01   2.03342400e+05 
     1468    1469    1       1.09540000e-01   2.89892624e+05 
     1468    1470    1       1.54250000e-01   1.87443200e+05 
     1468    1476    1       1.54830000e-01   1.84179680e+05 
     1470    1471    1       1.09470000e-01   2.90754528e+05 
     1470    1472    1       1.55780000e-01   1.78983152e+05 
     1472    1473    1       1.09470000e-01   2.90754528e+05 
     1474    1472    1       1.54250000e-01   1.87443200e+05 
     1474    1475    1       1.09540000e-01   2.89892624e+05 
     1474    1476    1       1.54830000e-01   1.84179680e+05 
     1476    1477    1       1.09540000e-01   2.89892624e+05 
     1476    1478    1       1.09540000e-01   2.89892624e+05 
     1479    1480    1       1.39860000e-01   2.96436400e+05 
     1480    1481    1       1.08600000e-01   3.01825392e+05 
     1482    1483    1       1.40560000e-01   2.89591376e+05 
     1482    1517    1       1.40560000e-01   2.89591376e+05 
     1483    1484    1       1.39860000e-01   2.96436400e+05 
     1484    1485    1       1.08600000e-01   3.01825392e+05 
     1484    1486    1       1.39860000e-01   2.96436400e+05 
     1486    1487    1       1.51590000e-01   2.03342400e+05 
     1486    1516    1       1.39860000e-01   2.96436400e+05 
     1487    1488    1       1.09470000e-01   2.90754528e+05 
     1487    1489    1       1.55780000e-01   1.78983152e+05 
     1487    1511    1       1.54250000e-01   1.87443200e+05 
     1489    1490    1       1.09470000e-01   2.90754528e+05 
     1489    1491    1       1.54250000e-01   1.87443200e+05 
     1489    1516    1       1.51590000e-01   2.03342400e+05 
     1491    1492    1       1.09540000e-01   2.89892624e+05 
     1491    1493    1       1.54250000e-01   1.87443200e+05 
     1491    1513    1       1.54830000e-01   1.84179680e+05 
     1493    1494    1       1.09470000e-01   2.90754528e+05 
     1493    1495    1       1.51590000e-01   2.03342400e+05 
     1493    1509    1       1.55780000e-01   1.78983152e+05 
     1495    1496    1       1.39860000e-01   2.96436400e+05 
     1495    1504    1       1.39860000e-01   2.96436400e+05 
     1496    1497    1       1.39860000e-01   2.96436400e+05 
     1496    1509    1       1.51590000e-01   2.03342400e+05 
     1497    1498    1       1.51470000e-01   2.04103888e+05 
     1497    1502    1       1.39860000e-01   2.96436400e+05 
     1498    1499    1       1.09620000e-01   2.88905200e+05 
     1498    1500    1       1.09620000e-01   2.88905200e+05 
     1498    1501    1       1.09620000e-01   2.88905200e+05 
     1502    1503    1       1.39860000e-01   2.96436400e+05 
     1502    6233    1       1.51590000e-01   2.03342400e+05 
     1503    1504    1       1.39860000e-01   2.96436400e+05 
     1503    6231    1       1.51590000e-01   2.03342400e+05 
     1504    1505    1       1.51470000e-01   2.04103888e+05 
     1505    1506    1       1.09620000e-01   2.88905200e+05 
     1505    1507    1       1.09620000e-01   2.88905200e+05 
     1505    1508    1       1.09620000e-01   2.88905200e+05 
     1509    1510    1       1.09470000e-01   2.90754528e+05 
     1509    1511    1       1.54250000e-01   1.87443200e+05 
     1511    1512    1       1.09540000e-01   2.89892624e+05 
     1511    1513    1       1.54830000e-01   1.84179680e+05 
     1513    1514    1       1.09540000e-01   2.89892624e+05 
     1513    1515    1       1.09540000e-01   2.89892624e+05 
     1516    1517    1       1.39860000e-01   2.96436400e+05 
     1517    1518    1       1.08600000e-01   3.01825392e+05 
     1519    1520    1       1.09620000e-01   2.88905200e+05 
     1519    1521    1       1.09620000e-01   2.88905200e+05 
     1519    1522    1       1.09620000e-01   2.88905200e+05 
     1519    1523    1       1.53720000e-01   1.90489152e+05 
     1523    1524    1       1.53720000e-01   1.90489152e+05 
     1523    1528    1       1.51510000e-01   2.03844480e+05 
     1523    1552    1       1.51510000e-01   2.03844480e+05 
     1524    1525    1       1.09620000e-01   2.88905200e+05 
     1524    1526    1       1.09620000e-01   2.88905200e+05 
     1524    1527    1       1.09620000e-01   2.88905200e+05 
     1528    1529    1       1.40560000e-01   2.89591376e+05 
     1528    1549    1       1.39860000e-01   2.96436400e+05 
     1529    1530    1       1.40560000e-01   2.89591376e+05 
     1529    1551    1       1.48290000e-01   2.25408816e+05 
     1530    1531    1       1.08600000e-01   3.01825392e+05 
     1530    1532    1       1.39860000e-01   2.96436400e+05 
     1532    1533    1       1.51590000e-01   2.03342400e+05 
     1532    1548    1       1.39860000e-01   2.96436400e+05 
     1533    1534    1       1.09470000e-01   2.90754528e+05 
     1533    1535    1       1.55780000e-01   1.78983152e+05 
     1533    1543    1       1.54250000e-01   1.87443200e+05 
     1535    1536    1       1.09470000e-01   2.90754528e+05 
     1535    1537    1       1.54250000e-01   1.87443200e+05 
     1535    1548    1       1.51590000e-01   2.03342400e+05 
     1537    1538    1       1.09540000e-01   2.89892624e+05 
     1537    1539    1       1.54250000e-01   1.87443200e+05 
     1537    1545    1       1.54830000e-01   1.84179680e+05 
     1539    1540    1       1.09470000e-01   2.90754528e+05 
     1539    1541    1       1.55780000e-01   1.78983152e+05 
     1541    1542    1       1.09470000e-01   2.90754528e+05 
     1543    1541    1       1.54250000e-01   1.87443200e+05 
     1543    1544    1       1.09540000e-01   2.89892624e+05 
     1543    1545    1       1.54830000e-01   1.84179680e+05 
     1545    1546    1       1.09540000e-01   2.89892624e+05 
     1545    1547    1       1.09540000e-01   2.89892624e+05 
     1548    1549    1       1.39860000e-01   2.96436400e+05 
     1549    1550    1       1.08600000e-01   3.01825392e+05 
     1551    1552    1       1.40560000e-01   2.89591376e+05 
     1551    1586    1       1.40560000e-01   2.89591376e+05 
     1552    1553    1       1.39860000e-01   2.96436400e+05 
     1553    1554    1       1.08600000e-01   3.01825392e+05 
     1553    1555    1       1.39860000e-01   2.96436400e+05 
     1555    1556    1       1.51590000e-01   2.03342400e+05 
     1555    1585    1       1.39860000e-01   2.96436400e+05 
     1556    1557    1       1.09470000e-01   2.90754528e+05 
     1556    1558    1       1.55780000e-01   1.78983152e+05 
     1556    1580    1       1.54250000e-01   1.87443200e+05 
     1558    1559    1       1.09470000e-01   2.90754528e+05 
     1558    1560    1       1.54250000e-01   1.87443200e+05 
     1558    1585    1       1.51590000e-01   2.03342400e+05 
     1560    1561    1       1.09540000e-01   2.89892624e+05 
     1560    1562    1       1.54250000e-01   1.87443200e+05 
     1560    1582    1       1.54830000e-01   1.84179680e+05 
     1562    1563    1       1.09470000e-01   2.90754528e+05 
     1562    1564    1       1.51590000e-01   2.03342400e+05 
     1562    1578    1       1.55780000e-01   1.78983152e+05 
     1564    1565    1       1.39860000e-01   2.96436400e+05 
     1564    1573    1       1.39860000e-01   2.96436400e+05 
     1565    1566    1       1.39860000e-01   2.96436400e+05 
     1565    1578    1       1.51590000e-01   2.03342400e+05 
     1566    1567    1       1.51470000e-01   2.04103888e+05 
     1566    1571    1       1.39860000e-01   2.96436400e+05 
     1567    1568    1       1.09620000e-01   2.88905200e+05 
     1567    1569    1       1.09620000e-01   2.88905200e+05 
     1567    1570    1       1.09620000e-01   2.88905200e+05 
     1571    1572    1       1.39860000e-01   2.96436400e+05 
     1571    2022    1       1.51590000e-01   2.03342400e+05 
     1572    1573    1       1.39860000e-01   2.96436400e+05 
     1572    2024    1       1.51590000e-01   2.03342400e+05 
     1573    1574    1       1.51470000e-01   2.04103888e+05 
     1574    1575    1       1.09620000e-01   2.88905200e+05 
     1574    1576    1       1.09620000e-01   2.88905200e+05 
     1574    1577    1       1.09620000e-01   2.88905200e+05 
     1578    1579    1       1.09470000e-01   2.90754528e+05 
     1578    1580    1       1.54250000e-01   1.87443200e+05 
     1580    1581    1       1.09540000e-01   2.89892624e+05 
     1580    1582    1       1.54830000e-01   1.84179680e+05 
     1582    1583    1       1.09540000e-01   2.89892624e+05 
     1582    1584    1       1.09540000e-01   2.89892624e+05 
     1585    1586    1       1.39860000e-01   2.96436400e+05 
     1586    1587    1       1.08600000e-01   3.01825392e+05 
     1588    1589    1       1.09620000e-01   2.88905200e+05 
     1588    1590    1       1.09620000e-01   2.88905200e+05 
     1588    1591    1       1.09620000e-01   2.88905200e+05 
     1588    1592    1       1.53720000e-01   1.90489152e+05 
     1592    1593    1       1.53720000e-01   1.90489152e+05 
     1592    1597    1       1.51510000e-01   2.03844480e+05 
     1592    1621    1       1.51510000e-01   2.03844480e+05 
     1593    1594    1       1.09620000e-01   2.88905200e+05 
     1593    1595    1       1.09620000e-01   2.88905200e+05 
     1593    1596    1       1.09620000e-01   2.88905200e+05 
     1597    1598    1       1.40560000e-01   2.89591376e+05 
     1597    1618    1       1.39860000e-01   2.96436400e+05 
     1598    1599    1       1.40560000e-01   2.89591376e+05 
     1598    1620    1       1.48290000e-01   2.25408816e+05 
     1599    1600    1       1.08600000e-01   3.01825392e+05 
     1599    1601    1       1.39860000e-01   2.96436400e+05 
     1601    1602    1       1.51590000e-01   2.03342400e+05 
     1601    1617    1       1.39860000e-01   2.96436400e+05 
     1602    1603    1       1.09470000e-01   2.90754528e+05 
     1602    1604    1       1.55780000e-01   1.78983152e+05 
     1602    1612    1       1.54250000e-01   1.87443200e+05 
     1604    1605    1       1.09470000e-01   2.90754528e+05 
     1604    1606    1       1.54250000e-01   1.87443200e+05 
     1604    1617    1       1.51590000e-01   2.03342400e+05 
     1606    1607    1       1.09540000e-01   2.89892624e+05 
     1606    1608    1       1.54250000e-01   1.87443200e+05 
     1606    1614    1       1.54830000e-01   1.84179680e+05 
     1608    1609    1       1.09470000e-01   2.90754528e+05 
     1608    1610    1       1.55780000e-01   1.78983152e+05 
     1610    1611    1       1.09470000e-01   2.90754528e+05 
     1612    1610    1       1.54250000e-01   1.87443200e+05 
     1612    1613    1       1.09540000e-01   2.89892624e+05 
     1612    1614    1       1.54830000e-01   1.84179680e+05 
     1614    1615    1       1.09540000e-01   2.89892624e+05 
     1614    1616    1       1.09540000e-01   2.89892624e+05 
     1617    1618    1       1.39860000e-01   2.96436400e+05 
     1618    1619    1       1.08600000e-01   3.01825392e+05 
     1620    1621    1       1.40560000e-01   2.89591376e+05 
     1620    1655    1       1.40560000e-01   2.89591376e+05 
     1621    1622    1       1.39860000e-01   2.96436400e+05 
     1622    1623    1       1.08600000e-01   3.01825392e+05 
     1622    1624    1       1.39860000e-01   2.96436400e+05 
     1624    1625    1       1.51590000e-01   2.03342400e+05 
     1624    1654    1       1.39860000e-01   2.96436400e+05 
     1625    1626    1       1.09470000e-01   2.90754528e+05 
     1625    1627    1       1.55780000e-01   1.78983152e+05 
     1625    1649    1       1.54250000e-01   1.87443200e+05 
     1627    1628    1       1.09470000e-01   2.90754528e+05 
     1627    1629    1       1.54250000e-01   1.87443200e+05 
     1627    1654    1       1.51590000e-01   2.03342400e+05 
     1629    1630    1       1.09540000e-01   2.89892624e+05 
     1629    1631    1       1.54250000e-01   1.87443200e+05 
     1629    1651    1       1.54830000e-01   1.84179680e+05 
     1631    1632    1       1.09470000e-01   2.90754528e+05 
     1631    1633    1       1.51590000e-01   2.03342400e+05 
     1631    1647    1       1.55780000e-01   1.78983152e+05 
     1633    1634    1       1.39860000e-01   2.96436400e+05 
     1633    1642    1       1.39860000e-01   2.96436400e+05 
     1634    1635    1       1.39860000e-01   2.96436400e+05 
     1634    1647    1       1.51590000e-01   2.03342400e+05 
     1635    1636    1       1.51470000e-01   2.04103888e+05 
     1635    1640    1       1.39860000e-01   2.96436400e+05 
     1636    1637    1       1.09620000e-01   2.88905200e+05 
     1636    1638    1       1.09620000e-01   2.88905200e+05 
     1636    1639    1       1.09620000e-01   2.88905200e+05 
     1640    1641    1       1.39860000e-01   2.96436400e+05 
     1640    4920    1       1.51590000e-01   2.03342400e+05 
     1641    1642    1       1.39860000e-01   2.96436400e+05 
     1641    4922    1       1.51590000e-01   2.03342400e+05 
     1642    1643    1       1.51470000e-01   2.04103888e+05 
     1643    1644    1       1.09620000e-01   2.88905200e+05 
     1643    1645    1       1.09620000e-01   2.88905200e+05 
     1643    1646    1       1.09620000e-01   2.88905200e+05 
     1647    1648    1       1.09470000e-01   2.90754528e+05 
     1647    1649    1       1.54250000e-01   1.87443200e+05 
     1649    1650    1       1.09540000e-01   2.89892624e+05 
     1649    1651    1       1.54830000e-01   1.84179680e+05 
     1651    1652    1       1.09540000e-01   2.89892624e+05 
     1651    1653    1       1.09540000e-01   2.89892624e+05 
     1654    1655    1       1.39860000e-01   2.96436400e+05 
     1655    1656    1       1.08600000e-01   3.01825392e+05 
     1657    1658    1       1.09620000e-01   2.88905200e+05 
     1657    1659    1       1.09620000e-01   2.88905200e+05 
     1657    1660    1       1.09620000e-01   2.88905200e+05 
     1657    1661    1       1.53720000e-01   1.90489152e+05 
     1661    1662    1       1.53720000e-01   1.90489152e+05 
     1661    1666    1       1.51510000e-01   2.03844480e+05 
     1661    1690    1       1.51510000e-01   2.03844480e+05 
     1662    1663    1       1.09620000e-01   2.88905200e+05 
     1662    1664    1       1.09620000e-01   2.88905200e+05 
     1662    1665    1       1.09620000e-01   2.88905200e+05 
     1666    1667    1       1.40560000e-01   2.89591376e+05 
     1666    1687    1       1.39860000e-01   2.96436400e+05 
     1667    1668    1       1.40560000e-01   2.89591376e+05 
     1667    1689    1       1.48290000e-01   2.25408816e+05 
     1668    1669    1       1.08600000e-01   3.01825392e+05 
     1668    1670    1       1.39860000e-01   2.96436400e+05 
     1670    1671    1       1.51590000e-01   2.03342400e+05 
     1670    1686    1       1.39860000e-01   2.96436400e+05 
     1671    1672    1       1.09470000e-01   2.90754528e+05 
     1671    1673    1       1.55780000e-01   1.78983152e+05 
     1671    1681    1       1.54250000e-01   1.87443200e+05 
     1673    1674    1       1.09470000e-01   2.90754528e+05 
     1673    1675    1       1.54250000e-01   1.87443200e+05 
     1673    1686    1       1.51590000e-01   2.03342400e+05 
     1675    1676    1       1.09540000e-01   2.89892624e+05 
     1675    1677    1       1.54250000e-01   1.87443200e+05 
     1675    1683    1       1.54830000e-01   1.84179680e+05 
     1677    1678    1       1.09470000e-01   2.90754528e+05 
     1677    1679    1       1.55780000e-01   1.78983152e+05 
     1679    1680    1       1.09470000e-01   2.90754528e+05 
     1681    1679    1       1.54250000e-01   1.87443200e+05 
     1681    1682    1       1.09540000e-01   2.89892624e+05 
     1681    1683    1       1.54830000e-01   1.84179680e+05 
     1683    1684    1       1.09540000e-01   2.89892624e+05 
     1683    1685    1       1.09540000e-01   2.89892624e+05 
     1686    1687    1       1.39860000e-01   2.96436400e+05 
     1687    1688    1       1.08600000e-01   3.01825392e+05 
     1689    1690    1       1.40560000e-01   2.89591376e+05 
     1689    1724    1       1.40560000e-01   2.89591376e+05 
     1690    1691    1       1.39860000e-01   2.96436400e+05 
     1691    1692    1       1.08600000e-01   3.01825392e+05 
     1691    1693    1       1.39860000e-01   2.96436400e+05 
     1693    1694    1       1.51590000e-01   2.03342400e+05 
     1693    1723    1       1.39860000e-01   2.96436400e+05 
     1694    1695    1       1.09470000e-01   2.90754528e+05 
     1694    1696    1       1.55780000e-01   1.78983152e+05 
     1694    1718    1       1.54250000e-01   1.87443200e+05 
     1696    1697    1       1.09470000e-01   2.90754528e+05 
     1696    1698    1       1.54250000e-01   1.87443200e+05 
     1696    1723    1       1.51590000e-01   2.03342400e+05 
     1698    1699    1       1.09540000e-01   2.89892624e+05 
     1698    1700    1       1.54250000e-01   1.87443200e+05 
     1698    1720    1       1.54830000e-01   1.84179680e+05 
     1700    1701    1       1.09470000e-01   2.90754528e+05 
     1700    1702    1       1.51590000e-01   2.03342400e+05 
     1700    1716    1       1.55780000e-01   1.78983152e+05 
     1702    1703    1       1.39860000e-01   2.96436400e+05 
     1702    1711    1       1.39860000e-01   2.96436400e+05 
     1703    1704    1       1.39860000e-01   2.96436400e+05 
     1703    1716    1       1.51590000e-01   2.03342400e+05 
     1704    1705    1       1.51470000e-01   2.04103888e+05 
     1704    1709    1       1.39860000e-01   2.96436400e+05 
     1705    1706    1       1.09620000e-01   2.88905200e+05 
     1705    1707    1       1.09620000e-01   2.88905200e+05 
     1705    1708    1       1.09620000e-01   2.88905200e+05 
     1709    1710    1       1.39860000e-01   2.96436400e+05 
     1709    5196    1       1.51590000e-01   2.03342400e+05 
     1710    1711    1       1.39860000e-01   2.96436400e+05 
     1710    5198    1       1.51590000e-01   2.03342400e+05 
     1711    1712    1       1.51470000e-01   2.04103888e+05 
     1712    1713    1       1.09620000e-01   2.88905200e+05 
     1712    1714    1       1.09620000e-01   2.88905200e+05 
     1712    1715    1       1.09620000e-01   2.88905200e+05 
     1716    1717    1       1.09470000e-01   2.90754528e+05 
     1716    1718    1       1.54250000e-01   1.87443200e+05 
     1718    1719    1       1.09540000e-01   2.89892624e+05 
     1718    1720    1       1.54830000e-01   1.84179680e+05 
     1720    1721    1       1.09540000e-01   2.89892624e+05 
     1720    1722    1       1.09540000e-01   2.89892624e+05 
     1723    1724    1       1.39860000e-01   2.96436400e+05 
     1724    1725    1       1.08600000e-01   3.01825392e+05 
     1726    1727    1       1.09620000e-01   2.88905200e+05 
     1726    1728    1       1.09620000e-01   2.88905200e+05 
     1726    1729    1       1.09620000e-01   2.88905200e+05 
     1726    1730    1       1.53720000e-01   1.90489152e+05 
     1730    1731    1       1.53720000e-01   1.90489152e+05 
     1730    1735    1       1.51510000e-01   2.03844480e+05 
     1730    1759    1       1.51510000e-01   2.03844480e+05 
     1731    1732    1       1.09620000e-01   2.88905200e+05 
     1731    1733    1       1.09620000e-01   2.88905200e+05 
     1731    1734    1       1.09620000e-01   2.88905200e+05 
     1735    1736    1       1.40560000e-01   2.89591376e+05 
     1735    1756    1       1.39860000e-01   2.96436400e+05 
     1736    1737    1       1.40560000e-01   2.89591376e+05 
     1736    1758    1       1.48290000e-01   2.25408816e+05 
     1737    1738    1       1.08600000e-01   3.01825392e+05 
     1737    1739    1       1.39860000e-01   2.96436400e+05 
     1739    1740    1       1.51590000e-01   2.03342400e+05 
     1739    1755    1       1.39860000e-01   2.96436400e+05 
     1740    1741    1       1.09470000e-01   2.90754528e+05 
     1740    1742    1       1.55780000e-01   1.78983152e+05 
     1740    1750    1       1.54250000e-01   1.87443200e+05 
     1742    1743    1       1.09470000e-01   2.90754528e+05 
     1742    1744    1       1.54250000e-01   1.87443200e+05 
     1742    1755    1       1.51590000e-01   2.03342400e+05 
     1744    1745    1       1.09540000e-01   2.89892624e+05 
     1744    1746    1       1.54250000e-01   1.87443200e+05 
     1744    1752    1       1.54830000e-01   1.84179680e+05 
     1746    1747    1       1.09470000e-01   2.90754528e+05 
     1746    1748    1       1.55780000e-01   1.78983152e+05 
     1748    1749    1       1.09470000e-01   2.90754528e+05 
     1750    1748    1       1.54250000e-01   1.87443200e+05 
     1750    1751    1       1.09540000e-01   2.89892624e+05 
     1750    1752    1       1.54830000e-01   1.84179680e+05 
     1752    1753    1       1.09540000e-01   2.89892624e+05 
     1752    1754    1       1.09540000e-01   2.89892624e+05 
     1755    1756    1       1.39860000e-01   2.96436400e+05 
     1756    1757    1       1.08600000e-01   3.01825392e+05 
     1758    1759    1       1.40560000e-01   2.89591376e+05 
     1758    1793    1       1.40560000e-01   2.89591376e+05 
     1759    1760    1       1.39860000e-01   2.96436400e+05 
     1760    1761    1       1.08600000e-01   3.01825392e+05 
     1760    1762    1       1.39860000e-01   2.96436400e+05 
     1762    1763    1       1.51590000e-01   2.03342400e+05 
     1762    1792    1       1.39860000e-01   2.96436400e+05 
     1763    1764    1       1.09470000e-01   2.90754528e+05 
     1763    1765    1       1.55780000e-01   1.78983152e+05 
     1763    1787    1       1.54250000e-01   1.87443200e+05 
     1765    1766    1       1.09470000e-01   2.90754528e+05 
     1765    1767    1       1.54250000e-01   1.87443200e+05 
     1765    1792    1       1.51590000e-01   2.03342400e+05 
     1767    1768    1       1.09540000e-01   2.89892624e+05 
     1767    1769    1       1.54250000e-01   1.87443200e+05 
     1767    1789    1       1.54830000e-01   1.84179680e+05 
     1769    1770    1       1.09470000e-01   2.90754528e+05 
     1769    1771    1       1.51590000e-01   2.03342400e+05 
     1769    1785    1       1.55780000e-01   1.78983152e+05 
     1771    1772    1       1.39860000e-01   2.96436400e+05 
     1771    1780    1       1.39860000e-01   2.96436400e+05 
     1772    1773    1       1.39860000e-01   2.96436400e+05 
     1772    1785    1       1.51590000e-01   2.03342400e+05 
     1773    1774    1       1.51470000e-01   2.04103888e+05 
     1773    1778    1       1.39860000e-01   2.96436400e+05 
     1774    1775    1       1.09620000e-01   2.88905200e+05 
     1774    1776    1       1.09620000e-01   2.88905200e+05 
     1774    1777    1       1.09620000e-01   2.88905200e+05 
     1778    1779    1       1.39860000e-01   2.96436400e+05 
     1778    2645    1       1.51590000e-01   2.03342400e+05 
     1779    1780    1       1.39860000e-01   2.96436400e+05 
     1779    2643    1       1.51590000e-01   2.03342400e+05 
     1780    1781    1       1.51470000e-01   2.04103888e+05 
     1781    1782    1       1.09620000e-01   2.88905200e+05 
     1781    1783    1       1.09620000e-01   2.88905200e+05 
     1781    1784    1       1.09620000e-01   2.88905200e+05 
     1785    1786    1       1.09470000e-01   2.90754528e+05 
     1785    1787    1       1.54250000e-01   1.87443200e+05 
     1787    1788    1       1.09540000e-01   2.89892624e+05 
     1787    1789    1       1.54830000e-01   1.84179680e+05 
     1789    1790    1       1.09540000e-01   2.89892624e+05 
     1789    1791    1       1.09540000e-01   2.89892624e+05 
     1792    1793    1       1.39860000e-01   2.96436400e+05 
     1793    1794    1       1.08600000e-01   3.01825392e+05 
     1795    1796    1       1.09620000e-01   2.88905200e+05 
     1795    1797    1       1.09620000e-01   2.88905200e+05 
     1795    1798    1       1.09620000e-01   2.88905200e+05 
     1795    1799    1       1.53720000e-01   1.90489152e+05 
     1799    1800    1       1.53720000e-01   1.90489152e+05 
     1799    1804    1       1.51510000e-01   2.03844480e+05 
     1799    1828    1       1.51510000e-01   2.03844480e+05 
     1800    1801    1       1.09620000e-01   2.88905200e+05 
     1800    1802    1       1.09620000e-01   2.88905200e+05 
     1800    1803    1       1.09620000e-01   2.88905200e+05 
     1804    1805    1       1.40560000e-01   2.89591376e+05 
     1804    1825    1       1.39860000e-01   2.96436400e+05 
     1805    1806    1       1.40560000e-01   2.89591376e+05 
     1805    1827    1       1.48290000e-01   2.25408816e+05 
     1806    1807    1       1.08600000e-01   3.01825392e+05 
     1806    1808    1       1.39860000e-01   2.96436400e+05 
     1808    1809    1       1.51590000e-01   2.03342400e+05 
     1808    1824    1       1.39860000e-01   2.96436400e+05 
     1809    1810    1       1.09470000e-01   2.90754528e+05 
     1809    1811    1       1.55780000e-01   1.78983152e+05 
     1809    1819    1       1.54250000e-01   1.87443200e+05 
     1811    1812    1       1.09470000e-01   2.90754528e+05 
     1811    1813    1       1.54250000e-01   1.87443200e+05 
     1811    1824    1       1.51590000e-01   2.03342400e+05 
     1813    1814    1       1.09540000e-01   2.89892624e+05 
     1813    1815    1       1.54250000e-01   1.87443200e+05 
     1813    1821    1       1.54830000e-01   1.84179680e+05 
     1815    1816    1       1.09470000e-01   2.90754528e+05 
     1815    1817    1       1.55780000e-01   1.78983152e+05 
     1817    1818    1       1.09470000e-01   2.90754528e+05 
     1819    1817    1       1.54250000e-01   1.87443200e+05 
     1819    1820    1       1.09540000e-01   2.89892624e+05 
     1819    1821    1       1.54830000e-01   1.84179680e+05 
     1821    1822    1       1.09540000e-01   2.89892624e+05 
     1821    1823    1       1.09540000e-01   2.89892624e+05 
     1824    1825    1       1.39860000e-01   2.96436400e+05 
     1825    1826    1       1.08600000e-01   3.01825392e+05 
     1827    1828    1       1.40560000e-01   2.89591376e+05 
     1827    1862    1       1.40560000e-01   2.89591376e+05 
     1828    1829    1       1.39860000e-01   2.96436400e+05 
     1829    1830    1       1.08600000e-01   3.01825392e+05 
     1829    1831    1       1.39860000e-01   2.96436400e+05 
     1831    1832    1       1.51590000e-01   2.03342400e+05 
     1831    1861    1       1.39860000e-01   2.96436400e+05 
     1832    1833    1       1.09470000e-01   2.90754528e+05 
     1832    1834    1       1.55780000e-01   1.78983152e+05 
     1832    1856    1       1.54250000e-01   1.87443200e+05 
     1834    1835    1       1.09470000e-01   2.90754528e+05 
     1834    1836    1       1.54250000e-01   1.87443200e+05 
     1834    1861    1       1.51590000e-01   2.03342400e+05 
     1836    1837    1       1.09540000e-01   2.89892624e+05 
     1836    1838    1       1.54250000e-01   1.87443200e+05 
     1836    1858    1       1.54830000e-01   1.84179680e+05 
     1838    1839    1       1.09470000e-01   2.90754528e+05 
     1838    1840    1       1.51590000e-01   2.03342400e+05 
     1838    1854    1       1.55780000e-01   1.78983152e+05 
     1840    1841    1       1.39860000e-01   2.96436400e+05 
     1840    1849    1       1.39860000e-01   2.96436400e+05 
     1841    1842    1       1.39860000e-01   2.96436400e+05 
     1841    1854    1       1.51590000e-01   2.03342400e+05 
     1842    1843    1       1.51470000e-01   2.04103888e+05 
     1842    1847    1       1.39860000e-01   2.96436400e+05 
     1843    1844    1       1.09620000e-01   2.88905200e+05 
     1843    1845    1       1.09620000e-01   2.88905200e+05 
     1843    1846    1       1.09620000e-01   2.88905200e+05 
     1847    1608    1       1.51590000e-01   2.03342400e+05 
     1847    1848    1       1.39860000e-01   2.96436400e+05 
     1848    1610    1       1.51590000e-01   2.03342400e+05 
     1848    1849    1       1.39860000e-01   2.96436400e+05 
     1849    1850    1       1.51470000e-01   2.04103888e+05 
     1850    1851    1       1.09620000e-01   2.88905200e+05 
     1850    1852    1       1.09620000e-01   2.88905200e+05 
     1850    1853    1       1.09620000e-01   2.88905200e+05 
     1854    1855    1       1.09470000e-01   2.90754528e+05 
     1854    1856    1       1.54250000e-01   1.87443200e+05 
     1856    1857    1       1.09540000e-01   2.89892624e+05 
     1856    1858    1       1.54830000e-01   1.84179680e+05 
     1858    1859    1       1.09540000e-01   2.89892624e+05 
     1858    1860    1       1.09540000e-01   2.89892624e+05 
     1861    1862    1       1.39860000e-01   2.96436400e+05 
     1862    1863    1       1.08600000e-01   3.01825392e+05 
     1864    1865    1       1.09620000e-01   2.88905200e+05 
     1864    1866    1       1.09620000e-01   2.88905200e+05 
     1864    1867    1       1.09620000e-01   2.88905200e+05 
     1864    1868    1       1.53720000e-01   1.90489152e+05 
     1868    1869    1       1.53720000e-01   1.90489152e+05 
     1868    1873    1       1.51510000e-01   2.03844480e+05 
     1868    1897    1       1.51510000e-01   2.03844480e+05 
     1869    1870    1       1.09620000e-01   2.88905200e+05 
     1869    1871    1       1.09620000e-01   2.88905200e+05 
     1869    1872    1       1.09620000e-01   2.88905200e+05 
     1873    1874    1       1.40560000e-01   2.89591376e+05 
     1873    1894    1       1.39860000e-01   2.96436400e+05 
     1874    1875    1       1.40560000e-01   2.89591376e+05 
     1874    1896    1       1.48290000e-01   2.25408816e+05 
     1875    1876    1       1.08600000e-01   3.01825392e+05 
     1875    1877    1       1.39860000e-01   2.96436400e+05 
     1877    1878    1       1.51590000e-01   2.03342400e+05 
     1877    1893    1       1.39860000e-01   2.96436400e+05 
     1878    1879    1       1.09470000e-01   2.90754528e+05 
     1878    1880    1       1.55780000e-01   1.78983152e+05 
     1878    1888    1       1.54250000e-01   1.87443200e+05 
     1880    1881    1       1.09470000e-01   2.90754528e+05 
     1880    1882    1       1.54250000e-01   1.87443200e+05 
     1880    1893    1       1.51590000e-01   2.03342400e+05 
     1882    1883    1       1.09540000e-01   2.89892624e+05 
     1882    1884    1       1.54250000e-01   1.87443200e+05 
     1882    1890    1       1.54830000e-01   1.84179680e+05 
     1884    1885    1       1.09470000e-01   2.90754528e+05 
     1884    1886    1       1.55780000e-01   1.78983152e+05 
     1886    1887    1       1.09470000e-01   2.90754528e+05 
     1888    1886    1       1.54250000e-01   1.87443200e+05 
     1888    1889    1       1.09540000e-01   2.89892624e+05 
     1888    1890    1       1.54830000e-01   1.84179680e+05 
     1890    1891    1       1.09540000e-01   2.89892624e+05 
     1890    1892    1       1.09540000e-01   2.89892624e+05 
     1893    1894    1       1.39860000e-01   2.96436400e+05 
     1894    1895    1       1.08600000e-01   3.01825392e+05 
     1896    1897    1       1.40560000e-01   2.89591376e+05 
     1896    1931    1       1.40560000e-01   2.89591376e+05 
     1897    1898    1       1.39860000e-01   2.96436400e+05 
     1898    1899    1       1.08600000e-01   3.01825392e+05 
     1898    1900    1       1.39860000e-01   2.96436400e+05 
     1900    1901    1       1.51590000e-01   2.03342400e+05 
     1900    1930    1       1.39860000e-01   2.96436400e+05 
     1901    1902    1       1.09470000e-01   2.90754528e+05 
     1901    1903    1       1.55780000e-01   1.78983152e+05 
     1901    1925    1       1.54250000e-01   1.87443200e+05 
     1903    1904    1       1.09470000e-01   2.90754528e+05 
     1903    1905    1       1.54250000e-01   1.87443200e+05 
     1903    1930    1       1.51590000e-01   2.03342400e+05 
     1905    1906    1       1.09540000e-01   2.89892624e+05 
     1905    1907    1       1.54250000e-01   1.87443200e+05 
     1905    1927    1       1.54830000e-01   1.84179680e+05 
     1907    1908    1       1.09470000e-01   2.90754528e+05 
     1907    1909    1       1.51590000e-01   2.03342400e+05 
     1907    1923    1       1.55780000e-01   1.78983152e+05 
     1909    1910    1       1.39860000e-01   2.96436400e+05 
     1909    1918    1       1.39860000e-01   2.96436400e+05 
     1910    1911    1       1.39860000e-01   2.96436400e+05 
     1910    1923    1       1.51590000e-01   2.03342400e+05 
     1911    1912    1       1.51470000e-01   2.04103888e+05 
     1911    1916    1       1.39860000e-01   2.96436400e+05 
     1912    1913    1       1.09620000e-01   2.88905200e+05 
     1912    1914    1       1.09620000e-01   2.88905200e+05 
     1912    1915    1       1.09620000e-01   2.88905200e+05 
     1916    1917    1       1.39860000e-01   2.96436400e+05 
     1916    5679    1       1.51590000e-01   2.03342400e+05 
     1917    1918    1       1.39860000e-01   2.96436400e+05 
     1917    5681    1       1.51590000e-01   2.03342400e+05 
     1918    1919    1       1.51470000e-01   2.04103888e+05 
     1919    1920    1       1.09620000e-01   2.88905200e+05 
     1919    1921    1       1.09620000e-01   2.88905200e+05 
     1919    1922    1       1.09620000e-01   2.88905200e+05 
     1923    1924    1       1.09470000e-01   2.90754528e+05 
     1923    1925    1       1.54250000e-01   1.87443200e+05 
     1925    1926    1       1.09540000e-01   2.89892624e+05 
     1925    1927    1       1.54830000e-01   1.84179680e+05 
     1927    1928    1       1.09540000e-01   2.89892624e+05 
     1927    1929    1       1.09540000e-01   2.89892624e+05 
     1930    1931    1       1.39860000e-01   2.96436400e+05 
     1931    1932    1       1.08600000e-01   3.01825392e+05 
     1933    1934    1       1.09620000e-01   2.88905200e+05 
     1933    1935    1       1.09620000e-01   2.88905200e+05 
     1933    1936    1       1.09620000e-01   2.88905200e+05 
     1933    1937    1       1.53720000e-01   1.90489152e+05 
     1937    1938    1       1.53720000e-01   1.90489152e+05 
     1937    1942    1       1.51510000e-01   2.03844480e+05 
     1937    1966    1       1.51510000e-01   2.03844480e+05 
     1938    1939    1       1.09620000e-01   2.88905200e+05 
     1938    1940    1       1.09620000e-01   2.88905200e+05 
     1938    1941    1       1.09620000e-01   2.88905200e+05 
     1942    1943    1       1.40560000e-01   2.89591376e+05 
     1942    1963    1       1.39860000e-01   2.96436400e+05 
     1943    1944    1       1.40560000e-01   2.89591376e+05 
     1943    1965    1       1.48290000e-01   2.25408816e+05 
     1944    1945    1       1.08600000e-01   3.01825392e+05 
     1944    1946    1       1.39860000e-01   2.96436400e+05 
     1946    1947    1       1.51590000e-01   2.03342400e+05 
     1946    1962    1       1.39860000e-01   2.96436400e+05 
     1947    1948    1       1.09470000e-01   2.90754528e+05 
     1947    1949    1       1.55780000e-01   1.78983152e+05 
     1947    1957    1       1.54250000e-01   1.87443200e+05 
     1949    1950    1       1.09470000e-01   2.90754528e+05 
     1949    1951    1       1.54250000e-01   1.87443200e+05 
     1949    1962    1       1.51590000e-01   2.03342400e+05 
     1951    1952    1       1.09540000e-01   2.89892624e+05 
     1951    1953    1       1.54250000e-01   1.87443200e+05 
     1951    1959    1       1.54830000e-01   1.84179680e+05 
     1953    1954    1       1.09470000e-01   2.90754528e+05 
     1953    1955    1       1.55780000e-01   1.78983152e+05 
     1955    1956    1       1.09470000e-01   2.90754528e+05 
     1957    1955    1       1.54250000e-01   1.87443200e+05 
     1957    1958    1       1.09540000e-01   2.89892624e+05 
     1957    1959    1       1.54830000e-01   1.84179680e+05 
     1959    1960    1       1.09540000e-01   2.89892624e+05 
     1959    1961    1       1.09540000e-01   2.89892624e+05 
     1962    1963    1       1.39860000e-01   2.96436400e+05 
     1963    1964    1       1.08600000e-01   3.01825392e+05 
     1965    1966    1       1.40560000e-01   2.89591376e+05 
     1965    2000    1       1.40560000e-01   2.89591376e+05 
     1966    1967    1       1.39860000e-01   2.96436400e+05 
     1967    1968    1       1.08600000e-01   3.01825392e+05 
     1967    1969    1       1.39860000e-01   2.96436400e+05 
     1969    1970    1       1.51590000e-01   2.03342400e+05 
     1969    1999    1       1.39860000e-01   2.96436400e+05 
     1970    1971    1       1.09470000e-01   2.90754528e+05 
     1970    1972    1       1.55780000e-01   1.78983152e+05 
     1970    1994    1       1.54250000e-01   1.87443200e+05 
     1972    1973    1       1.09470000e-01   2.90754528e+05 
     1972    1974    1       1.54250000e-01   1.87443200e+05 
     1972    1999    1       1.51590000e-01   2.03342400e+05 
     1974    1975    1       1.09540000e-01   2.89892624e+05 
     1974    1976    1       1.54250000e-01   1.87443200e+05 
     1974    1996    1       1.54830000e-01   1.84179680e+05 
     1976    1977    1       1.09470000e-01   2.90754528e+05 
     1976    1978    1       1.51590000e-01   2.03342400e+05 
     1976    1992    1       1.55780000e-01   1.78983152e+05 
     1978    1979    1       1.39860000e-01   2.96436400e+05 
     1978    1987    1       1.39860000e-01   2.96436400e+05 
     1979    1980    1       1.39860000e-01   2.96436400e+05 
     1979    1992    1       1.51590000e-01   2.03342400e+05 
     1980    1981    1       1.51470000e-01   2.04103888e+05 
     1980    1985    1       1.39860000e-01   2.96436400e+05 
     1981    1982    1       1.09620000e-01   2.88905200e+05 
     1981    1983    1       1.09620000e-01   2.88905200e+05 
     1981    1984    1       1.09620000e-01   2.88905200e+05 
     1985    1986    1       1.39860000e-01   2.96436400e+05 
     1985    4094    1       1.51590000e-01   2.03342400e+05 
     1986    1987    1       1.39860000e-01   2.96436400e+05 
     1986    4092    1       1.51590000e-01   2.03342400e+05 
     1987    1988    1       1.51470000e-01   2.04103888e+05 
     1988    1989    1       1.09620000e-01   2.88905200e+05 
     1988    1990    1       1.09620000e-01   2.88905200e+05 
     1988    1991    1       1.09620000e-01   2.88905200e+05 
     1992    1993    1       1.09470000e-01   2.90754528e+05 
     1992    1994    1       1.54250000e-01   1.87443200e+05 
     1994    1995    1       1.09540000e-01   2.89892624e+05 
     1994    1996    1       1.54830000e-01   1.84179680e+05 
     1996    1997    1       1.09540000e-01   2.89892624e+05 
     1996    1998    1       1.09540000e-01   2.89892624e+05 
     1999    2000    1       1.39860000e-01   2.96436400e+05 
     2000    2001    1       1.08600000e-01   3.01825392e+05 
     2002    2003    1       1.09620000e-01   2.88905200e+05 
     2002    2004    1       1.09620000e-01   2.88905200e+05 
     2002    2005    1       1.09620000e-01   2.88905200e+05 
     2002    2006    1       1.53720000e-01   1.90489152e+05 
     2006    2007    1       1.53720000e-01   1.90489152e+05 
     2006    2011    1       1.51510000e-01   2.03844480e+05 
     2006    2035    1       1.51510000e-01   2.03844480e+05 
     2007    2008    1       1.09620000e-01   2.88905200e+05 
     2007    2009    1       1.09620000e-01   2.88905200e+05 
     2007    2010    1       1.09620000e-01   2.88905200e+05 
     2011    2012    1       1.40560000e-01   2.89591376e+05 
     2011    2032    1       1.39860000e-01   2.96436400e+05 
     2012    2013    1       1.40560000e-01   2.89591376e+05 
     2012    2034    1       1.48290000e-01   2.25408816e+05 
     2013    2014    1       1.08600000e-01   3.01825392e+05 
     2013    2015    1       1.39860000e-01   2.96436400e+05 
     2015    2016    1       1.51590000e-01   2.03342400e+05 
     2015    2031    1       1.39860000e-01   2.96436400e+05 
     2016    2017    1       1.09470000e-01   2.90754528e+05 
     2016    2018    1       1.55780000e-01   1.78983152e+05 
     2016    2026    1       1.54250000e-01   1.87443200e+05 
     2018    2019    1       1.09470000e-01   2.90754528e+05 
     2018    2020    1       1.54250000e-01   1.87443200e+05 
     2018    2031    1       1.51590000e-01   2.03342400e+05 
     2020    2021    1       1.09540000e-01   2.89892624e+05 
     2020    2022    1       1.54250000e-01   1.87443200e+05 
     2020    2028    1       1.54830000e-01   1.84179680e+05 
     2022    2023    1       1.09470000e-01   2.90754528e+05 
     2022    2024    1       1.55780000e-01   1.78983152e+05 
     2024    2025    1       1.09470000e-01   2.90754528e+05 
     2026    2024    1       1.54250000e-01   1.87443200e+05 
     2026    2027    1       1.09540000e-01   2.89892624e+05 
     2026    2028    1       1.54830000e-01   1.84179680e+05 
     2028    2029    1       1.09540000e-01   2.89892624e+05 
     2028    2030    1       1.09540000e-01   2.89892624e+05 
     2031    2032    1       1.39860000e-01   2.96436400e+05 
     2032    2033    1       1.08600000e-01   3.01825392e+05 
     2034    2035    1       1.40560000e-01   2.89591376e+05 
     2034    2069    1       1.40560000e-01   2.89591376e+05 
     2035    2036    1       1.39860000e-01   2.96436400e+05 
     2036    2037    1       1.08600000e-01   3.01825392e+05 
     2036    2038    1       1.39860000e-01   2.96436400e+05 
     2038    2039    1       1.51590000e-01   2.03342400e+05 
     2038    2068    1       1.39860000e-01   2.96436400e+05 
     2039    2040    1       1.09470000e-01   2.90754528e+05 
     2039    2041    1       1.55780000e-01   1.78983152e+05 
     2039    2063    1       1.54250000e-01   1.87443200e+05 
     2041    2042    1       1.09470000e-01   2.90754528e+05 
     2041    2043    1       1.54250000e-01   1.87443200e+05 
     2041    2068    1       1.51590000e-01   2.03342400e+05 
     2043    2044    1       1.09540000e-01   2.89892624e+05 
     2043    2045    1       1.54250000e-01   1.87443200e+05 
     2043    2065    1       1.54830000e-01   1.84179680e+05 
     2045    2046    1       1.09470000e-01   2.90754528e+05 
     2045    2047    1       1.51590000e-01   2.03342400e+05 
     2045    2061    1       1.55780000e-01   1.78983152e+05 
     2047    2048    1       1.39860000e-01   2.96436400e+05 
     2047    2056    1       1.39860000e-01   2.96436400e+05 
     2048    2049    1       1.39860000e-01   2.96436400e+05 
     2048    2061    1       1.51590000e-01   2.03342400e+05 
     2049    2050    1       1.51470000e-01   2.04103888e+05 
     2049    2054    1       1.39860000e-01   2.96436400e+05 
     2050    2051    1       1.09620000e-01   2.88905200e+05 
     2050    2052    1       1.09620000e-01   2.88905200e+05 
     2050    2053    1       1.09620000e-01   2.88905200e+05 
     2054    2055    1       1.39860000e-01   2.96436400e+05 
     2054    3747    1       1.51590000e-01   2.03342400e+05 
     2055    2056    1       1.39860000e-01   2.96436400e+05 
     2055    3749    1       1.51590000e-01   2.03342400e+05 
     2056    2057    1       1.51470000e-01   2.04103888e+05 
     2057    2058    1       1.09620000e-01   2.88905200e+05 
     2057    2059    1       1.09620000e-01   2.88905200e+05 
     2057    2060    1       1.09620000e-01   2.88905200e+05 
     2061    2062    1       1.09470000e-01   2.90754528e+05 
     2061    2063    1       1.54250000e-01   1.87443200e+05 
     2063    2064    1       1.09540000e-01   2.89892624e+05 
     2063    2065    1       1.54830000e-01   1.84179680e+05 
     2065    2066    1       1.09540000e-01   2.89892624e+05 
     2065    2067    1       1.09540000e-01   2.89892624e+05 
     2068    2069    1       1.39860000e-01   2.96436400e+05 
     2069    2070    1       1.08600000e-01   3.01825392e+05 
     2071    2072    1       1.09620000e-01   2.88905200e+05 
     2071    2073    1       1.09620000e-01   2.88905200e+05 
     2071    2074    1       1.09620000e-01   2.88905200e+05 
     2071    2075    1       1.53720000e-01   1.90489152e+05 
     2075    2076    1       1.53720000e-01   1.90489152e+05 
     2075    2080    1       1.51510000e-01   2.03844480e+05 
     2075    2104    1       1.51510000e-01   2.03844480e+05 
     2076    2077    1       1.09620000e-01   2.88905200e+05 
     2076    2078    1       1.09620000e-01   2.88905200e+05 
     2076    2079    1       1.09620000e-01   2.88905200e+05 
     2080    2081    1       1.40560000e-01   2.89591376e+05 
     2080    2101    1       1.39860000e-01   2.96436400e+05 
     2081    2082    1       1.40560000e-01   2.89591376e+05 
     2081    2103    1       1.48290000e-01   2.25408816e+05 
     2082    2083    1       1.08600000e-01   3.01825392e+05 
     2082    2084    1       1.39860000e-01   2.96436400e+05 
     2084    2085    1       1.51590000e-01   2.03342400e+05 
     2084    2100    1       1.39860000e-01   2.96436400e+05 
     2085    2086    1       1.09470000e-01   2.90754528e+05 
     2085    2087    1       1.55780000e-01   1.78983152e+05 
     2085    2095    1       1.54250000e-01   1.87443200e+05 
     2087    2088    1       1.09470000e-01   2.90754528e+05 
     2087    2089    1       1.54250000e-01   1.87443200e+05 
     2087    2100    1       1.51590000e-01   2.03342400e+05 
     2089    2090    1       1.09540000e-01   2.89892624e+05 
     2089    2091    1       1.54250000e-01   1.87443200e+05 
     2089    2097    1       1.54830000e-01   1.84179680e+05 
     2091    2092    1       1.09470000e-01   2.90754528e+05 
     2091    2093    1       1.55780000e-01   1.78983152e+05 
     2093    2094    1       1.09470000e-01   2.90754528e+05 
     2095    2093    1       1.54250000e-01   1.87443200e+05 
     2095    2096    1       1.09540000e-01   2.89892624e+05 
     2095    2097    1       1.54830000e-01   1.84179680e+05 
     2097    2098    1       1.09540000e-01   2.89892624e+05 
     2097    2099    1       1.09540000e-01   2.89892624e+05 
     2100    2101    1       1.39860000e-01   2.96436400e+05 
     2101    2102    1       1.08600000e-01   3.01825392e+05 
     2103    2104    1       1.40560000e-01   2.89591376e+05 
     2103    2138    1       1.40560000e-01   2.89591376e+05 
     2104    2105    1       1.39860000e-01   2.96436400e+05 
     2105    2106    1       1.08600000e-01   3.01825392e+05 
     2105    2107    1       1.39860000e-01   2.96436400e+05 
     2107    2108    1       1.51590000e-01   2.03342400e+05 
     2107    2137    1       1.39860000e-01   2.96436400e+05 
     2108    2109    1       1.09470000e-01   2.90754528e+05 
     2108    2110    1       1.55780000e-01   1.78983152e+05 
     2108    2132    1       1.54250000e-01   1.87443200e+05 
     2110    2111    1       1.09470000e-01   2.90754528e+05 
     2110    2112    1       1.54250000e-01   1.87443200e+05 
     2110    2137    1       1.51590000e-01   2.03342400e+05 
     2112    2113    1       1.09540000e-01   2.89892624e+05 
     2112    2114    1       1.54250000e-01   1.87443200e+05 
     2112    2134    1       1.54830000e-01   1.84179680e+05 
     2114    2115    1       1.09470000e-01   2.90754528e+05 
     2114    2116    1       1.51590000e-01   2.03342400e+05 
     2114    2130    1       1.55780000e-01   1.78983152e+05 
     2116    2117    1       1.39860000e-01   2.96436400e+05 
     2116    2125    1       1.39860000e-01   2.96436400e+05 
     2117    2118    1       1.39860000e-01   2.96436400e+05 
     2117    2130    1       1.51590000e-01   2.03342400e+05 
     2118    2119    1       1.51470000e-01   2.04103888e+05 
     2118    2123    1       1.39860000e-01   2.96436400e+05 
     2119    2120    1       1.09620000e-01   2.88905200e+05 
     2119    2121    1       1.09620000e-01   2.88905200e+05 
     2119    2122    1       1.09620000e-01   2.88905200e+05 
     2123    2124    1       1.39860000e-01   2.96436400e+05 
     2123    5129    1       1.51590000e-01   2.03342400e+05 
     2124    2125    1       1.39860000e-01   2.96436400e+05 
     2124    5127    1       1.51590000e-01   2.03342400e+05 
     2125    2126    1       1.51470000e-01   2.04103888e+05 
     2126    2127    1       1.09620000e-01   2.88905200e+05 
     2126    2128    1       1.09620000e-01   2.88905200e+05 
     2126    2129    1       1.09620000e-01   2.88905200e+05 
     2130    2131    1       1.09470000e-01   2.90754528e+05 
     2130    2132    1       1.54250000e-01   1.87443200e+05 
     2132    2133    1       1.09540000e-01   2.89892624e+05 
     2132    2134    1       1.54830000e-01   1.84179680e+05 
     2134    2135    1       1.09540000e-01   2.89892624e+05 
     2134    2136    1       1.09540000e-01   2.89892624e+05 
     2137    2138    1       1.39860000e-01   2.96436400e+05 
     2138    2139    1       1.08600000e-01   3.01825392e+05 
     2140    2141    1       1.09620000e-01   2.88905200e+05 
     2140    2142    1       1.09620000e-01   2.88905200e+05 
     2140    2143    1       1.09620000e-01   2.88905200e+05 
     2140    2144    1       1.53720000e-01   1.90489152e+05 
     2144    2145    1       1.53720000e-01   1.90489152e+05 
     2144    2149    1       1.51510000e-01   2.03844480e+05 
     2144    2173    1       1.51510000e-01   2.03844480e+05 
     2145    2146    1       1.09620000e-01   2.88905200e+05 
     2145    2147    1       1.09620000e-01   2.88905200e+05 
     2145    2148    1       1.09620000e-01   2.88905200e+05 
     2149    2150    1       1.40560000e-01   2.89591376e+05 
     2149    2170    1       1.39860000e-01   2.96436400e+05 
     2150    2151    1       1.40560000e-01   2.89591376e+05 
     2150    2172    1       1.48290000e-01   2.25408816e+05 
     2151    2152    1       1.08600000e-01   3.01825392e+05 
     2151    2153    1       1.39860000e-01   2.96436400e+05 
     2153    2154    1       1.51590000e-01   2.03342400e+05 
     2153    2169    1       1.39860000e-01   2.96436400e+05 
     2154    2155    1       1.09470000e-01   2.90754528e+05 
     2154    2156    1       1.55780000e-01   1.78983152e+05 
     2154    2164    1       1.54250000e-01   1.87443200e+05 
     2156    2157    1       1.09470000e-01   2.90754528e+05 
     2156    2158    1       1.54250000e-01   1.87443200e+05 
     2156    2169    1       1.51590000e-01   2.03342400e+05 
     2158    2159    1       1.09540000e-01   2.89892624e+05 
     2158    2160    1       1.54250000e-01   1.87443200e+05 
     2158    2166    1       1.54830000e-01   1.84179680e+05 
     2160    2161    1       1.09470000e-01   2.90754528e+05 
     2160    2162    1       1.55780000e-01   1.78983152e+05 
     2162    2163    1       1.09470000e-01   2.90754528e+05 
     2164    2162    1       1.54250000e-01   1.87443200e+05 
     2164    2165    1       1.09540000e-01   2.89892624e+05 
     2164    2166    1       1.54830000e-01   1.84179680e+05 
     2166    2167    1       1.09540000e-01   2.89892624e+05 
     2166    2168    1       1.09540000e-01   2.89892624e+05 
     2169    2170    1       1.39860000e-01   2.96436400e+05 
     2170    2171    1       1.08600000e-01   3.01825392e+05 
     2172    2173    1       1.40560000e-01   2.89591376e+05 
     2172    2207    1       1.40560000e-01   2.89591376e+05 
     2173    2174    1       1.39860000e-01   2.96436400e+05 
     2174    2175    1       1.08600000e-01   3.01825392e+05 
     2174    2176    1       1.39860000e-01   2.96436400e+05 
     2176    2177    1       1.51590000e-01   2.03342400e+05 
     2176    2206    1       1.39860000e-01   2.96436400e+05 
     2177    2178    1       1.09470000e-01   2.90754528e+05 
     2177    2179    1       1.55780000e-01   1.78983152e+05 
     2177    2201    1       1.54250000e-01   1.87443200e+05 
     2179    2180    1       1.09470000e-01   2.90754528e+05 
     2179    2181    1       1.54250000e-01   1.87443200e+05 
     2179    2206    1       1.51590000e-01   2.03342400e+05 
     2181    2182    1       1.09540000e-01   2.89892624e+05 
     2181    2183    1       1.54250000e-01   1.87443200e+05 
     2181    2203    1       1.54830000e-01   1.84179680e+05 
     2183    2184    1       1.09470000e-01   2.90754528e+05 
     2183    2185    1       1.51590000e-01   2.03342400e+05 
     2183    2199    1       1.55780000e-01   1.78983152e+05 
     2185    2186    1       1.39860000e-01   2.96436400e+05 
     2185    2194    1       1.39860000e-01   2.96436400e+05 
     2186    2187    1       1.39860000e-01   2.96436400e+05 
     2186    2199    1       1.51590000e-01   2.03342400e+05 
     2187    2188    1       1.51470000e-01   2.04103888e+05 
     2187    2192    1       1.39860000e-01   2.96436400e+05 
     2188    2189    1       1.09620000e-01   2.88905200e+05 
     2188    2190    1       1.09620000e-01   2.88905200e+05 
     2188    2191    1       1.09620000e-01   2.88905200e+05 
     2192    2193    1       1.39860000e-01   2.96436400e+05 
     2192    4851    1       1.51590000e-01   2.03342400e+05 
     2193    2194    1       1.39860000e-01   2.96436400e+05 
     2193    4853    1       1.51590000e-01   2.03342400e+05 
     2194    2195    1       1.51470000e-01   2.04103888e+05 
     2195    2196    1       1.09620000e-01   2.88905200e+05 
     2195    2197    1       1.09620000e-01   2.88905200e+05 
     2195    2198    1       1.09620000e-01   2.88905200e+05 
     2199    2200    1       1.09470000e-01   2.90754528e+05 
     2199    2201    1       1.54250000e-01   1.87443200e+05 
     2201    2202    1       1.09540000e-01   2.89892624e+05 
     2201    2203    1       1.54830000e-01   1.84179680e+05 
     2203    2204    1       1.09540000e-01   2.89892624e+05 
     2203    2205    1       1.09540000e-01   2.89892624e+05 
     2206    2207    1       1.39860000e-01   2.96436400e+05 
     2207    2208    1       1.08600000e-01   3.01825392e+05 
     2209    2210    1       1.09620000e-01   2.88905200e+05 
     2209    2211    1       1.09620000e-01   2.88905200e+05 
     2209    2212    1       1.09620000e-01   2.88905200e+05 
     2209    2213    1       1.53720000e-01   1.90489152e+05 
     2213    2214    1       1.53720000e-01   1.90489152e+05 
     2213    2218    1       1.51510000e-01   2.03844480e+05 
     2213    2242    1       1.51510000e-01   2.03844480e+05 
     2214    2215    1       1.09620000e-01   2.88905200e+05 
     2214    2216    1       1.09620000e-01   2.88905200e+05 
     2214    2217    1       1.09620000e-01   2.88905200e+05 
     2218    2219    1       1.40560000e-01   2.89591376e+05 
     2218    2239    1       1.39860000e-01   2.96436400e+05 
     2219    2220    1       1.40560000e-01   2.89591376e+05 
     2219    2241    1       1.48290000e-01   2.25408816e+05 
     2220    2221    1       1.08600000e-01   3.01825392e+05 
     2220    2222    1       1.39860000e-01   2.96436400e+05 
     2222    2223    1       1.51590000e-01   2.03342400e+05 
     2222    2238    1       1.39860000e-01   2.96436400e+05 
     2223    2224    1       1.09470000e-01   2.90754528e+05 
     2223    2225    1       1.55780000e-01   1.78983152e+05 
     2223    2233    1       1.54250000e-01   1.87443200e+05 
     2225    2226    1       1.09470000e-01   2.90754528e+05 
     2225    2227    1       1.54250000e-01   1.87443200e+05 
     2225    2238    1       1.51590000e-01   2.03342400e+05 
     2227    2228    1       1.09540000e-01   2.89892624e+05 
     2227    2229    1       1.54250000e-01   1.87443200e+05 
     2227    2235    1       1.54830000e-01   1.84179680e+05 
     2229    2230    1       1.09470000e-01   2.90754528e+05 
     2229    2231    1       1.55780000e-01   1.78983152e+05 
     2231    2232    1       1.09470000e-01   2.90754528e+05 
     2233    2231    1       1.54250000e-01   1.87443200e+05 
     2233    2234    1       1.09540000e-01   2.89892624e+05 
     2233    2235    1       1.54830000e-01   1.84179680e+05 
     2235    2236    1       1.09540000e-01   2.89892624e+05 
     2235    2237    1       1.09540000e-01   2.89892624e+05 
     2238    2239    1       1.39860000e-01   2.96436400e+05 
     2239    2240    1       1.08600000e-01   3.01825392e+05 
     2241    2242    1       1.40560000e-01   2.89591376e+05 
     2241    2276    1       1.40560000e-01   2.89591376e+05 
     2242    2243    1       1.39860000e-01   2.96436400e+05 
     2243    2244    1       1.08600000e-01   3.01825392e+05 
     2243    2245    1       1.39860000e-01   2.96436400e+05 
     2245    2246    1       1.51590000e-01   2.03342400e+05 
     2245    2275    1       1.39860000e-01   2.96436400e+05 
     2246    2247    1       1.09470000e-01   2.90754528e+05 
     2246    2248    1       1.55780000e-01   1.78983152e+05 
     2246    2270    1       1.54250000e-01   1.87443200e+05 
     2248    2249    1       1.09470000e-01   2.90754528e+05 
     2248    2250    1       1.54250000e-01   1.87443200e+05 
     2248    2275    1       1.51590000e-01   2.03342400e+05 
     2250    2251    1       1.09540000e-01   2.89892624e+05 
     2250    2252    1       1.54250000e-01   1.87443200e+05 
     2250    2272    1       1.54830000e-01   1.84179680e+05 
     2252    2253    1       1.09470000e-01   2.90754528e+05 
     2252    2254    1       1.51590000e-01   2.03342400e+05 
     2252    2268    1       1.55780000e-01   1.78983152e+05 
     2254    2255    1       1.39860000e-01   2.96436400e+05 
     2254    2263    1       1.39860000e-01   2.96436400e+05 
     2255    2256    1       1.39860000e-01   2.96436400e+05 
     2255    2268    1       1.51590000e-01   2.03342400e+05 
     2256    2257    1       1.51470000e-01   2.04103888e+05 
     2256    2261    1       1.39860000e-01   2.96436400e+05 
     2257    2258    1       1.09620000e-01   2.88905200e+05 
     2257    2259    1       1.09620000e-01   2.88905200e+05 
     2257    2260    1       1.09620000e-01   2.88905200e+05 
     2261    2262    1       1.39860000e-01   2.96436400e+05 
     2261    6507    1       1.51590000e-01   2.03342400e+05 
     2262    2263    1       1.39860000e-01   2.96436400e+05 
     2262    6509    1       1.51590000e-01   2.03342400e+05 
     2263    2264    1       1.51470000e-01   2.04103888e+05 
     2264    2265    1       1.09620000e-01   2.88905200e+05 
     2264    2266    1       1.09620000e-01   2.88905200e+05 
     2264    2267    1       1.09620000e-01   2.88905200e+05 
     2268    2269    1       1.09470000e-01   2.90754528e+05 
     2268    2270    1       1.54250000e-01   1.87443200e+05 
     2270    2271    1       1.09540000e-01   2.89892624e+05 
     2270    2272    1       1.54830000e-01   1.84179680e+05 
     2272    2273    1       1.09540000e-01   2.89892624e+05 
     2272    2274    1       1.09540000e-01   2.89892624e+05 
     2275    2276    1       1.39860000e-01   2.96436400e+05 
     2276    2277    1       1.08600000e-01   3.01825392e+05 
     2278    2279    1       1.09620000e-01   2.88905200e+05 
     2278    2280    1       1.09620000e-01   2.88905200e+05 
     2278    2281    1       1.09620000e-01   2.88905200e+05 
     2278    2282    1       1.53720000e-01   1.90489152e+05 
     2282    2283    1       1.53720000e-01   1.90489152e+05 
     2282    2287    1       1.51510000e-01   2.03844480e+05 
     2282    2311    1       1.51510000e-01   2.03844480e+05 
     2283    2284    1       1.09620000e-01   2.88905200e+05 
     2283    2285    1       1.09620000e-01   2.88905200e+05 
     2283    2286    1       1.09620000e-01   2.88905200e+05 
     2287    2288    1       1.40560000e-01   2.89591376e+05 
     2287    2308    1       1.39860000e-01   2.96436400e+05 
     2288    2289    1       1.40560000e-01   2.89591376e+05 
     2288    2310    1       1.48290000e-01   2.25408816e+05 
     2289    2290    1       1.08600000e-01   3.01825392e+05 
     2289    2291    1       1.39860000e-01   2.96436400e+05 
     2291    2292    1       1.51590000e-01   2.03342400e+05 
     2291    2307    1       1.39860000e-01   2.96436400e+05 
     2292    2293    1       1.09470000e-01   2.90754528e+05 
     2292    2294    1       1.55780000e-01   1.78983152e+05 
     2292    2302    1       1.54250000e-01   1.87443200e+05 
     2294    2295    1       1.09470000e-01   2.90754528e+05 
     2294    2296    1       1.54250000e-01   1.87443200e+05 
     2294    2307    1       1.51590000e-01   2.03342400e+05 
     2296    2297    1       1.09540000e-01   2.89892624e+05 
     2296    2298    1       1.54250000e-01   1.87443200e+05 
     2296    2304    1       1.54830000e-01   1.84179680e+05 
     2298    2299    1       1.09470000e-01   2.90754528e+05 
     2298    2300    1       1.55780000e-01   1.78983152e+05 
     2300    2301    1       1.09470000e-01   2.90754528e+05 
     2302    2300    1       1.54250000e-01   1.87443200e+05 
     2302    2303    1       1.09540000e-01   2.89892624e+05 
     2302    2304    1       1.54830000e-01   1.84179680e+05 
     2304    2305    1       1.09540000e-01   2.89892624e+05 
     2304    2306    1       1.09540000e-01   2.89892624e+05 
     2307    2308    1       1.39860000e-01   2.96436400e+05 
     2308    2309    1       1.08600000e-01   3.01825392e+05 
     2310    2311    1       1.40560000e-01   2.89591376e+05 
     2310    2345    1       1.40560000e-01   2.89591376e+05 
     2311    2312    1       1.39860000e-01   2.96436400e+05 
     2312    2313    1       1.08600000e-01   3.01825392e+05 
     2312    2314    1       1.39860000e-01   2.96436400e+05 
     2314    2315    1       1.51590000e-01   2.03342400e+05 
     2314    2344    1       1.39860000e-01   2.96436400e+05 
     2315    2316    1       1.09470000e-01   2.90754528e+05 
     2315    2317    1       1.55780000e-01   1.78983152e+05 
     2315    2339    1       1.54250000e-01   1.87443200e+05 
     2317    2318    1       1.09470000e-01   2.90754528e+05 
     2317    2319    1       1.54250000e-01   1.87443200e+05 
     2317    2344    1       1.51590000e-01   2.03342400e+05 
     2319    2320    1       1.09540000e-01   2.89892624e+05 
     2319    2321    1       1.54250000e-01   1.87443200e+05 
     2319    2341    1       1.54830000e-01   1.84179680e+05 
     2321    2322    1       1.09470000e-01   2.90754528e+05 
     2321    2323    1       1.51590000e-01   2.03342400e+05 
     2321    2337    1       1.55780000e-01   1.78983152e+05 
     2323    2324    1       1.39860000e-01   2.96436400e+05 
     2323    2332    1       1.39860000e-01   2.96436400e+05 
     2324    2325    1       1.39860000e-01   2.96436400e+05 
     2324    2337    1       1.51590000e-01   2.03342400e+05 
     2325    2326    1       1.51470000e-01   2.04103888e+05 
     2325    2330    1       1.39860000e-01   2.96436400e+05 
     2326    2327    1       1.09620000e-01   2.88905200e+05 
     2326    2328    1       1.09620000e-01   2.88905200e+05 
     2326    2329    1       1.09620000e-01   2.88905200e+05 
     2330    2331    1       1.39860000e-01   2.96436400e+05 
     2330    3264    1       1.51590000e-01   2.03342400e+05 
     2331    2332    1       1.39860000e-01   2.96436400e+05 
     2331    3266    1       1.51590000e-01   2.03342400e+05 
     2332    2333    1       1.51470000e-01   2.04103888e+05 
     2333    2334    1       1.09620000e-01   2.88905200e+05 
     2333    2335    1       1.09620000e-01   2.88905200e+05 
     2333    2336    1       1.09620000e-01   2.88905200e+05 
     2337    2338    1       1.09470000e-01   2.90754528e+05 
     2337    2339    1       1.54250000e-01   1.87443200e+05 
     2339    2340    1       1.09540000e-01   2.89892624e+05 
     2339    2341    1       1.54830000e-01   1.84179680e+05 
     2341    2342    1       1.09540000e-01   2.89892624e+05 
     2341    2343    1       1.09540000e-01   2.89892624e+05 
     2344    2345    1       1.39860000e-01   2.96436400e+05 
     2345    2346    1       1.08600000e-01   3.01825392e+05 
     2347    2348    1       1.09620000e-01   2.88905200e+05 
     2347    2349    1       1.09620000e-01   2.88905200e+05 
     2347    2350    1       1.09620000e-01   2.88905200e+05 
     2347    2351    1       1.53720000e-01   1.90489152e+05 
     2351    2352    1       1.53720000e-01   1.90489152e+05 
     2351    2356    1       1.51510000e-01   2.03844480e+05 
     2351    2380    1       1.51510000e-01   2.03844480e+05 
     2352    2353    1       1.09620000e-01   2.88905200e+05 
     2352    2354    1       1.09620000e-01   2.88905200e+05 
     2352    2355    1       1.09620000e-01   2.88905200e+05 
     2356    2357    1       1.40560000e-01   2.89591376e+05 
     2356    2377    1       1.39860000e-01   2.96436400e+05 
     2357    2358    1       1.40560000e-01   2.89591376e+05 
     2357    2379    1       1.48290000e-01   2.25408816e+05 
     2358    2359    1       1.08600000e-01   3.01825392e+05 
     2358    2360    1       1.39860000e-01   2.96436400e+05 
     2360    2361    1       1.51590000e-01   2.03342400e+05 
     2360    2376    1       1.39860000e-01   2.96436400e+05 
     2361    2362    1       1.09470000e-01   2.90754528e+05 
     2361    2363    1       1.55780000e-01   1.78983152e+05 
     2361    2371    1       1.54250000e-01   1.87443200e+05 
     2363    2364    1       1.09470000e-01   2.90754528e+05 
     2363    2365    1       1.54250000e-01   1.87443200e+05 
     2363    2376    1       1.51590000e-01   2.03342400e+05 
     2365    2366    1       1.09540000e-01   2.89892624e+05 
     2365    2367    1       1.54250000e-01   1.87443200e+05 
     2365    2373    1       1.54830000e-01   1.84179680e+05 
     2367    2368    1       1.09470000e-01   2.90754528e+05 
     2367    2369    1       1.55780000e-01   1.78983152e+05 
     2369    2370    1       1.09470000e-01   2.90754528e+05 
     2371    2369    1       1.54250000e-01   1.87443200e+05 
     2371    2372    1       1.09540000e-01   2.89892624e+05 
     2371    2373    1       1.54830000e-01   1.84179680e+05 
     2373    2374    1       1.09540000e-01   2.89892624e+05 
     2373    2375    1       1.09540000e-01   2.89892624e+05 
     2376    2377    1       1.39860000e-01   2.96436400e+05 
     2377    2378    1       1.08600000e-01   3.01825392e+05 
     2379    2380    1       1.40560000e-01   2.89591376e+05 
     2379    2414    1       1.40560000e-01   2.89591376e+05 
     2380    2381    1       1.39860000e-01   2.96436400e+05 
     2381    2382    1       1.08600000e-01   3.01825392e+05 
     2381    2383    1       1.39860000e-01   2.96436400e+05 
     2383    2384    1       1.51590000e-01   2.03342400e+05 
     2383    2413    1       1.39860000e-01   2.96436400e+05 
     2384    2385    1       1.09470000e-01   2.90754528e+05 
     2384    2386    1       1.55780000e-01   1.78983152e+05 
     2384    2408    1       1.54250000e-01   1.87443200e+05 
     2386    2387    1       1.09470000e-01   2.90754528e+05 
     2386    2388    1       1.54250000e-01   1.87443200e+05 
     2386    2413    1       1.51590000e-01   2.03342400e+05 
     2388    2389    1       1.09540000e-01   2.89892624e+05 
     2388    2390    1       1.54250000e-01   1.87443200e+05 
     2388    2410    1       1.54830000e-01   1.84179680e+05 
     2390    2391    1       1.09470000e-01   2.90754528e+05 
     2390    2392    1       1.51590000e-01   2.03342400e+05 
     2390    2406    1       1.55780000e-01   1.78983152e+05 
     2392    2393    1       1.39860000e-01   2.96436400e+05 
     2392    2401    1       1.39860000e-01   2.96436400e+05 
     2393    2394    1       1.39860000e-01   2.96436400e+05 
     2393    2406    1       1.51590000e-01   2.03342400e+05 
     2394    2395    1       1.51470000e-01   2.04103888e+05 
     2394    2399    1       1.39860000e-01   2.96436400e+05 
     2395    2396    1       1.09620000e-01   2.88905200e+05 
     2395    2397    1       1.09620000e-01   2.88905200e+05 
     2395    2398    1       1.09620000e-01   2.88905200e+05 
     2399    644     1       1.51590000e-01   2.03342400e+05 
     2399    2400    1       1.39860000e-01   2.96436400e+05 
     2400    642     1       1.51590000e-01   2.03342400e+05 
     2400    2401    1       1.39860000e-01   2.96436400e+05 
     2401    2402    1       1.51470000e-01   2.04103888e+05 
     2402    2403    1       1.09620000e-01   2.88905200e+05 
     2402    2404    1       1.09620000e-01   2.88905200e+05 
     2402    2405    1       1.09620000e-01   2.88905200e+05 
     2406    2407    1       1.09470000e-01   2.90754528e+05 
     2406    2408    1       1.54250000e-01   1.87443200e+05 
     2408    2409    1       1.09540000e-01   2.89892624e+05 
     2408    2410    1       1.54830000e-01   1.84179680e+05 
     2410    2411    1       1.09540000e-01   2.89892624e+05 
     2410    2412    1       1.09540000e-01   2.89892624e+05 
     2413    2414    1       1.39860000e-01   2.96436400e+05 
     2414    2415    1       1.08600000e-01   3.01825392e+05 
     2416    2417    1       1.09620000e-01   2.88905200e+05 
     2416    2418    1       1.09620000e-01   2.88905200e+05 
     2416    2419    1       1.09620000e-01   2.88905200e+05 
     2416    2420    1       1.53720000e-01   1.90489152e+05 
     2420    2421    1       1.53720000e-01   1.90489152e+05 
     2420    2425    1       1.51510000e-01   2.03844480e+05 
     2420    2449    1       1.51510000e-01   2.03844480e+05 
     2421    2422    1       1.09620000e-01   2.88905200e+05 
     2421    2423    1       1.09620000e-01   2.88905200e+05 
     2421    2424    1       1.09620000e-01   2.88905200e+05 
     2425    2426    1       1.40560000e-01   2.89591376e+05 
     2425    2446    1       1.39860000e-01   2.96436400e+05 
     2426    2427    1       1.40560000e-01   2.89591376e+05 
     2426    2448    1       1.48290000e-01   2.25408816e+05 
     2427    2428    1       1.08600000e-01   3.01825392e+05 
     2427    2429    1       1.39860000e-01   2.96436400e+05 
     2429    2430    1       1.51590000e-01   2.03342400e+05 
     2429    2445    1       1.39860000e-01   2.96436400e+05 
     2430    2431    1       1.09470000e-01   2.90754528e+05 
     2430    2432    1       1.55780000e-01   1.78983152e+05 
     2430    2440    1       1.54250000e-01   1.87443200e+05 
     2432    2433    1       1.09470000e-01   2.90754528e+05 
     2432    2434    1       1.54250000e-01   1.87443200e+05 
     2432    2445    1       1.51590000e-01   2.03342400e+05 
     2434    2435    1       1.09540000e-01   2.89892624e+05 
     2434    2436    1       1.54250000e-01   1.87443200e+05 
     2434    2442    1       1.54830000e-01   1.84179680e+05 
     2436    2437    1       1.09470000e-01   2.90754528e+05 
     2436    2438    1       1.55780000e-01   1.78983152e+05 
     2438    2439    1       1.09470000e-01   2.90754528e+05 
     2440    2438    1       1.54250000e-01   1.87443200e+05 
     2440    2441    1       1.09540000e-01   2.89892624e+05 
     2440    2442    1       1.54830000e-01   1.84179680e+05 
     2442    2443    1       1.09540000e-01   2.89892624e+05 
     2442    2444    1       1.09540000e-01   2.89892624e+05 
     2445    2446    1       1.39860000e-01   2.96436400e+05 
     2446    2447    1       1.08600000e-01   3.01825392e+05 
     2448    2449    1       1.40560000e-01   2.89591376e+05 
     2448    2483    1       1.40560000e-01   2.89591376e+05 
     2449    2450    1       1.39860000e-01   2.96436400e+05 
     2450    2451    1       1.08600000e-01   3.01825392e+05 
     2450    2452    1       1.39860000e-01   2.96436400e+05 
     2452    2453    1       1.51590000e-01   2.03342400e+05 
     2452    2482    1       1.39860000e-01   2.96436400e+05 
     2453    2454    1       1.09470000e-01   2.90754528e+05 
     2453    2455    1       1.55780000e-01   1.78983152e+05 
     2453    2477    1       1.54250000e-01   1.87443200e+05 
     2455    2456    1       1.09470000e-01   2.90754528e+05 
     2455    2457    1       1.54250000e-01   1.87443200e+05 
     2455    2482    1       1.51590000e-01   2.03342400e+05 
     2457    2458    1       1.09540000e-01   2.89892624e+05 
     2457    2459    1       1.54250000e-01   1.87443200e+05 
     2457    2479    1       1.54830000e-01   1.84179680e+05 
     2459    2460    1       1.09470000e-01   2.90754528e+05 
     2459    2461    1       1.51590000e-01   2.03342400e+05 
     2459    2475    1       1.55780000e-01   1.78983152e+05 
     2461    2462    1       1.39860000e-01   2.96436400e+05 
     2461    2470    1       1.39860000e-01   2.96436400e+05 
     2462    2463    1       1.39860000e-01   2.96436400e+05 
     2462    2475    1       1.51590000e-01   2.03342400e+05 
     2463    2464    1       1.51470000e-01   2.04103888e+05 
     2463    2468    1       1.39860000e-01   2.96436400e+05 
     2464    2465    1       1.09620000e-01   2.88905200e+05 
     2464    2466    1       1.09620000e-01   2.88905200e+05 
     2464    2467    1       1.09620000e-01   2.88905200e+05 
     2468    1196    1       1.51590000e-01   2.03342400e+05 
     2468    2469    1       1.39860000e-01   2.96436400e+05 
     2469    1194    1       1.51590000e-01   2.03342400e+05 
     2469    2470    1       1.39860000e-01   2.96436400e+05 
     2470    2471    1       1.51470000e-01   2.04103888e+05 
     2471    2472    1       1.09620000e-01   2.88905200e+05 
     2471    2473    1       1.09620000e-01   2.88905200e+05 
     2471    2474    1       1.09620000e-01   2.88905200e+05 
     2475    2476    1       1.09470000e-01   2.90754528e+05 
     2475    2477    1       1.54250000e-01   1.87443200e+05 
     2477    2478    1       1.09540000e-01   2.89892624e+05 
     2477    2479    1       1.54830000e-01   1.84179680e+05 
     2479    2480    1       1.09540000e-01   2.89892624e+05 
     2479    2481    1       1.09540000e-01   2.89892624e+05 
     2482    2483    1       1.39860000e-01   2.96436400e+05 
     2483    2484    1       1.08600000e-01   3.01825392e+05 
     2485    2486    1       1.09620000e-01   2.88905200e+05 
     2485    2487    1       1.09620000e-01   2.88905200e+05 
     2485    2488    1       1.09620000e-01   2.88905200e+05 
     2485    2489    1       1.53720000e-01   1.90489152e+05 
     2489    2490    1       1.53720000e-01   1.90489152e+05 
     2489    2494    1       1.51510000e-01   2.03844480e+05 
     2489    2518    1       1.51510000e-01   2.03844480e+05 
     2490    2491    1       1.09620000e-01   2.88905200e+05 
     2490    2492    1       1.09620000e-01   2.88905200e+05 
     2490    2493    1       1.09620000e-01   2.88905200e+05 
     2494    2495    1       1.40560000e-01   2.89591376e+05 
     2494    2515    1       1.39860000e-01   2.96436400e+05 
     2495    2496    1       1.40560000e-01   2.89591376e+05 
     2495    2517    1       1.48290000e-01   2.25408816e+05 
     2496    2497    1       1.08600000e-01   3.01825392e+05 
     2496    2498    1       1.39860000e-01   2.96436400e+05 
     2498    2499    1       1.51590000e-01   2.03342400e+05 
     2498    2514    1       1.39860000e-01   2.96436400e+05 
     2499    2500    1       1.09470000e-01   2.90754528e+05 
     2499    2501    1       1.55780000e-01   1.78983152e+05 
     2499    2509    1       1.54250000e-01   1.87443200e+05 
     2501    2502    1       1.09470000e-01   2.90754528e+05 
     2501    2503    1       1.54250000e-01   1.87443200e+05 
     2501    2514    1       1.51590000e-01   2.03342400e+05 
     2503    2504    1       1.09540000e-01   2.89892624e+05 
     2503    2505    1       1.54830000e-01   1.84179680e+05 
     2503    2511    1       1.54830000e-01   1.84179680e+05 
     2505    2506    1       1.09540000e-01   2.89892624e+05 
     2505    2507    1       1.54830000e-01   1.84179680e+05 
     2507    2508    1       1.09540000e-01   2.89892624e+05 
     2507    2509    1       1.54830000e-01   1.84179680e+05 
     2509    2510    1       1.09540000e-01   2.89892624e+05 
     2509    2511    1       1.54830000e-01   1.84179680e+05 
     2511    2512    1       1.09540000e-01   2.89892624e+05 
     2511    2513    1       1.09540000e-01   2.89892624e+05 
     2514    2515    1       1.39860000e-01   2.96436400e+05 
     2515    2516    1       1.08600000e-01   3.01825392e+05 
     2517    2518    1       1.40560000e-01   2.89591376e+05 
     2517    2552    1       1.40560000e-01   2.89591376e+05 
     2518    2519    1       1.39860000e-01   2.96436400e+05 
     2519    2520    1       1.08600000e-01   3.01825392e+05 
     2519    2521    1       1.39860000e-01   2.96436400e+05 
     2521    2522    1       1.51590000e-01   2.03342400e+05 
     2521    2551    1       1.39860000e-01   2.96436400e+05 
     2522    2523    1       1.09470000e-01   2.90754528e+05 
     2522    2524    1       1.55780000e-01   1.78983152e+05 
     2522    2546    1       1.54250000e-01   1.87443200e+05 
     2524    2525    1       1.09470000e-01   2.90754528e+05 
     2524    2526    1       1.54250000e-01   1.87443200e+05 
     2524    2551    1       1.51590000e-01   2.03342400e+05 
     2526    2527    1       1.09540000e-01   2.89892624e+05 
     2526    2528    1       1.54250000e-01   1.87443200e+05 
     2526    2548    1       1.54830000e-01   1.84179680e+05 
     2528    2529    1       1.09470000e-01   2.90754528e+05 
     2528    2530    1       1.51590000e-01   2.03342400e+05 
     2528    2544    1       1.55780000e-01   1.78983152e+05 
     2530    2531    1       1.39860000e-01   2.96436400e+05 
     2530    2539    1       1.39860000e-01   2.96436400e+05 
     2531    2532    1       1.39860000e-01   2.96436400e+05 
     2531    2544    1       1.51590000e-01   2.03342400e+05 
     2532    2533    1       1.51470000e-01   2.04103888e+05 
     2532    2537    1       1.39860000e-01   2.96436400e+05 
     2533    2534    1       1.09620000e-01   2.88905200e+05 
     2533    2535    1       1.09620000e-01   2.88905200e+05 
     2533    2536    1       1.09620000e-01   2.88905200e+05 
     2537    1884    1       1.51590000e-01   2.03342400e+05 
     2537    2538    1       1.39860000e-01   2.96436400e+05 
     2538    1886    1       1.51590000e-01   2.03342400e+05 
     2538    2539    1       1.39860000e-01   2.96436400e+05 
     2539    2540    1       1.51470000e-01   2.04103888e+05 
     2540    2541    1       1.09620000e-01   2.88905200e+05 
     2540    2542    1       1.09620000e-01   2.88905200e+05 
     2540    2543    1       1.09620000e-01   2.88905200e+05 
     2544    2545    1       1.09470000e-01   2.90754528e+05 
     2544    2546    1       1.54250000e-01   1.87443200e+05 
     2546    2547    1       1.09540000e-01   2.89892624e+05 
     2546    2548    1       1.54830000e-01   1.84179680e+05 
     2548    2549    1       1.09540000e-01   2.89892624e+05 
     2548    2550    1       1.09540000e-01   2.89892624e+05 
     2551    2552    1       1.39860000e-01   2.96436400e+05 
     2552    2553    1       1.08600000e-01   3.01825392e+05 
     2554    2555    1       1.09620000e-01   2.88905200e+05 
     2554    2556    1       1.09620000e-01   2.88905200e+05 
     2554    2557    1       1.09620000e-01   2.88905200e+05 
     2554    2558    1       1.53720000e-01   1.90489152e+05 
     2558    2559    1       1.53720000e-01   1.90489152e+05 
     2558    2563    1       1.51510000e-01   2.03844480e+05 
     2558    2587    1       1.51510000e-01   2.03844480e+05 
     2559    2560    1       1.09620000e-01   2.88905200e+05 
     2559    2561    1       1.09620000e-01   2.88905200e+05 
     2559    2562    1       1.09620000e-01   2.88905200e+05 
     2563    2564    1       1.40560000e-01   2.89591376e+05 
     2563    2584    1       1.39860000e-01   2.96436400e+05 
     2564    2565    1       1.40560000e-01   2.89591376e+05 
     2564    2586    1       1.48290000e-01   2.25408816e+05 
     2565    2566    1       1.08600000e-01   3.01825392e+05 
     2565    2567    1       1.39860000e-01   2.96436400e+05 
     2567    2568    1       1.51590000e-01   2.03342400e+05 
     2567    2583    1       1.39860000e-01   2.96436400e+05 
     2568    2569    1       1.09470000e-01   2.90754528e+05 
     2568    2570    1       1.55780000e-01   1.78983152e+05 
     2568    2578    1       1.54250000e-01   1.87443200e+05 
     2570    2571    1       1.09470000e-01   2.90754528e+05 
     2570    2572    1       1.54250000e-01   1.87443200e+05 
     2570    2583    1       1.51590000e-01   2.03342400e+05 
     2572    2573    1       1.09540000e-01   2.89892624e+05 
     2572    2574    1       1.54250000e-01   1.87443200e+05 
     2572    2580    1       1.54830000e-01   1.84179680e+05 
     2574    2575    1       1.09470000e-01   2.90754528e+05 
     2574    2576    1       1.55780000e-01   1.78983152e+05 
     2576    2577    1       1.09470000e-01   2.90754528e+05 
     2578    2576    1       1.54250000e-01   1.87443200e+05 
     2578    2579    1       1.09540000e-01   2.89892624e+05 
     2578    2580    1       1.54830000e-01   1.84179680e+05 
     2580    2581    1       1.09540000e-01   2.89892624e+05 
     2580    2582    1       1.09540000e-01   2.89892624e+05 
     2583    2584    1       1.39860000e-01   2.96436400e+05 
     2584    2585    1       1.08600000e-01   3.01825392e+05 
     2586    2587    1       1.40560000e-01   2.89591376e+05 
     2586    2621    1       1.40560000e-01   2.89591376e+05 
     2587    2588    1       1.39860000e-01   2.96436400e+05 
     2588    2589    1       1.08600000e-01   3.01825392e+05 
     2588    2590    1       1.39860000e-01   2.96436400e+05 
     2590    2591    1       1.51590000e-01   2.03342400e+05 
     2590    2620    1       1.39860000e-01   2.96436400e+05 
     2591    2592    1       1.09470000e-01   2.90754528e+05 
     2591    2593    1       1.55780000e-01   1.78983152e+05 
     2591    2615    1       1.54250000e-01   1.87443200e+05 
     2593    2594    1       1.09470000e-01   2.90754528e+05 
     2593    2595    1       1.54250000e-01   1.87443200e+05 
     2593    2620    1       1.51590000e-01   2.03342400e+05 
     2595    2596    1       1.09540000e-01   2.89892624e+05 
     2595    2597    1       1.54250000e-01   1.87443200e+05 
     2595    2617    1       1.54830000e-01   1.84179680e+05 
     2597    2598    1       1.09470000e-01   2.90754528e+05 
     2597    2599    1       1.51590000e-01   2.03342400e+05 
     2597    2613    1       1.55780000e-01   1.78983152e+05 
     2599    2600    1       1.39860000e-01   2.96436400e+05 
     2599    2608    1       1.39860000e-01   2.96436400e+05 
     2600    2601    1       1.39860000e-01   2.96436400e+05 
     2600    2613    1       1.51590000e-01   2.03342400e+05 
     2601    2602    1       1.51470000e-01   2.04103888e+05 
     2601    2606    1       1.39860000e-01   2.96436400e+05 
     2602    2603    1       1.09620000e-01   2.88905200e+05 
     2602    2604    1       1.09620000e-01   2.88905200e+05 
     2602    2605    1       1.09620000e-01   2.88905200e+05 
     2606    1746    1       1.51590000e-01   2.03342400e+05 
     2606    2607    1       1.39860000e-01   2.96436400e+05 
     2607    1748    1       1.51590000e-01   2.03342400e+05 
     2607    2608    1       1.39860000e-01   2.96436400e+05 
     2608    2609    1       1.51470000e-01   2.04103888e+05 
     2609    2610    1       1.09620000e-01   2.88905200e+05 
     2609    2611    1       1.09620000e-01   2.88905200e+05 
     2609    2612    1       1.09620000e-01   2.88905200e+05 
     2613    2614    1       1.09470000e-01   2.90754528e+05 
     2613    2615    1       1.54250000e-01   1.87443200e+05 
     2615    2616    1       1.09540000e-01   2.89892624e+05 
     2615    2617    1       1.54830000e-01   1.84179680e+05 
     2617    2618    1       1.09540000e-01   2.89892624e+05 
     2617    2619    1       1.09540000e-01   2.89892624e+05 
     2620    2621    1       1.39860000e-01   2.96436400e+05 
     2621    2622    1       1.08600000e-01   3.01825392e+05 
     2623    2624    1       1.09620000e-01   2.88905200e+05 
     2623    2625    1       1.09620000e-01   2.88905200e+05 
     2623    2626    1       1.09620000e-01   2.88905200e+05 
     2623    2627    1       1.53720000e-01   1.90489152e+05 
     2627    2628    1       1.53720000e-01   1.90489152e+05 
     2627    2632    1       1.51510000e-01   2.03844480e+05 
     2627    2656    1       1.51510000e-01   2.03844480e+05 
     2628    2629    1       1.09620000e-01   2.88905200e+05 
     2628    2630    1       1.09620000e-01   2.88905200e+05 
     2628    2631    1       1.09620000e-01   2.88905200e+05 
     2632    2633    1       1.40560000e-01   2.89591376e+05 
     2632    2653    1       1.39860000e-01   2.96436400e+05 
     2633    2634    1       1.40560000e-01   2.89591376e+05 
     2633    2655    1       1.48290000e-01   2.25408816e+05 
     2634    2635    1       1.08600000e-01   3.01825392e+05 
     2634    2636    1       1.39860000e-01   2.96436400e+05 
     2636    2637    1       1.51590000e-01   2.03342400e+05 
     2636    2652    1       1.39860000e-01   2.96436400e+05 
     2637    2638    1       1.09470000e-01   2.90754528e+05 
     2637    2639    1       1.55780000e-01   1.78983152e+05 
     2637    2647    1       1.54250000e-01   1.87443200e+05 
     2639    2640    1       1.09470000e-01   2.90754528e+05 
     2639    2641    1       1.54250000e-01   1.87443200e+05 
     2639    2652    1       1.51590000e-01   2.03342400e+05 
     2641    2642    1       1.09540000e-01   2.89892624e+05 
     2641    2643    1       1.54250000e-01   1.87443200e+05 
     2641    2649    1       1.54830000e-01   1.84179680e+05 
     2643    2644    1       1.09470000e-01   2.90754528e+05 
     2643    2645    1       1.55780000e-01   1.78983152e+05 
     2645    2646    1       1.09470000e-01   2.90754528e+05 
     2647    2645    1       1.54250000e-01   1.87443200e+05 
     2647    2648    1       1.09540000e-01   2.89892624e+05 
     2647    2649    1       1.54830000e-01   1.84179680e+05 
     2649    2650    1       1.09540000e-01   2.89892624e+05 
     2649    2651    1       1.09540000e-01   2.89892624e+05 
     2652    2653    1       1.39860000e-01   2.96436400e+05 
     2653    2654    1       1.08600000e-01   3.01825392e+05 
     2655    2656    1       1.40560000e-01   2.89591376e+05 
     2655    2690    1       1.40560000e-01   2.89591376e+05 
     2656    2657    1       1.39860000e-01   2.96436400e+05 
     2657    2658    1       1.08600000e-01   3.01825392e+05 
     2657    2659    1       1.39860000e-01   2.96436400e+05 
     2659    2660    1       1.51590000e-01   2.03342400e+05 
     2659    2689    1       1.39860000e-01   2.96436400e+05 
     2660    2661    1       1.09470000e-01   2.90754528e+05 
     2660    2662    1       1.55780000e-01   1.78983152e+05 
     2660    2684    1       1.54250000e-01   1.87443200e+05 
     2662    2663    1       1.09470000e-01   2.90754528e+05 
     2662    2664    1       1.54250000e-01   1.87443200e+05 
     2662    2689    1       1.51590000e-01   2.03342400e+05 
     2664    2665    1       1.09540000e-01   2.89892624e+05 
     2664    2666    1       1.54250000e-01   1.87443200e+05 
     2664    2686    1       1.54830000e-01   1.84179680e+05 
     2666    2667    1       1.09470000e-01   2.90754528e+05 
     2666    2668    1       1.51590000e-01   2.03342400e+05 
     2666    2682    1       1.55780000e-01   1.78983152e+05 
     2668    2669    1       1.39860000e-01   2.96436400e+05 
     2668    2677    1       1.39860000e-01   2.96436400e+05 
     2669    2670    1       1.39860000e-01   2.96436400e+05 
     2669    2682    1       1.51590000e-01   2.03342400e+05 
     2670    2671    1       1.51470000e-01   2.04103888e+05 
     2670    2675    1       1.39860000e-01   2.96436400e+05 
     2671    2672    1       1.09620000e-01   2.88905200e+05 
     2671    2673    1       1.09620000e-01   2.88905200e+05 
     2671    2674    1       1.09620000e-01   2.88905200e+05 
     2675    368     1       1.51590000e-01   2.03342400e+05 
     2675    2676    1       1.39860000e-01   2.96436400e+05 
     2676    366     1       1.51590000e-01   2.03342400e+05 
     2676    2677    1       1.39860000e-01   2.96436400e+05 
     2677    2678    1       1.51470000e-01   2.04103888e+05 
     2678    2679    1       1.09620000e-01   2.88905200e+05 
     2678    2680    1       1.09620000e-01   2.88905200e+05 
     2678    2681    1       1.09620000e-01   2.88905200e+05 
     2682    2683    1       1.09470000e-01   2.90754528e+05 
     2682    2684    1       1.54250000e-01   1.87443200e+05 
     2684    2685    1       1.09540000e-01   2.89892624e+05 
     2684    2686    1       1.54830000e-01   1.84179680e+05 
     2686    2687    1       1.09540000e-01   2.89892624e+05 
     2686    2688    1       1.09540000e-01   2.89892624e+05 
     2689    2690    1       1.39860000e-01   2.96436400e+05 
     2690    2691    1       1.08600000e-01   3.01825392e+05 
     2692    2693    1       1.09620000e-01   2.88905200e+05 
     2692    2694    1       1.09620000e-01   2.88905200e+05 
     2692    2695    1       1.09620000e-01   2.88905200e+05 
     2692    2696    1       1.53720000e-01   1.90489152e+05 
     2696    2697    1       1.53720000e-01   1.90489152e+05 
     2696    2701    1       1.51510000e-01   2.03844480e+05 
     2696    2725    1       1.51510000e-01   2.03844480e+05 
     2697    2698    1       1.09620000e-01   2.88905200e+05 
     2697    2699    1       1.09620000e-01   2.88905200e+05 
     2697    2700    1       1.09620000e-01   2.88905200e+05 
     2701    2702    1       1.40560000e-01   2.89591376e+05 
     2701    2722    1       1.39860000e-01   2.96436400e+05 
     2702    2703    1       1.40560000e-01   2.89591376e+05 
     2702    2724    1       1.48290000e-01   2.25408816e+05 
     2703    2704    1       1.08600000e-01   3.01825392e+05 
     2703    2705    1       1.39860000e-01   2.96436400e+05 
     2705    2706    1       1.51590000e-01   2.03342400e+05 
     2705    2721    1       1.39860000e-01   2.96436400e+05 
     2706    2707    1       1.09470000e-01   2.90754528e+05 
     2706    2708    1       1.55780000e-01   1.78983152e+05 
     2706    2716    1       1.54250000e-01   1.87443200e+05 
     2708    2709    1       1.09470000e-01   2.90754528e+05 
     2708    2710    1       1.54250000e-01   1.87443200e+05 
     2708    2721    1       1.51590000e-01   2.03342400e+05 
     2710    2711    1       1.09540000e-01   2.89892624e+05 
     2710    2712    1       1.54250000e-01   1.87443200e+05 
     2710    2718    1       1.54830000e-01   1.84179680e+05 
     2712    2713    1       1.09470000e-01   2.90754528e+05 
     2712    2714    1       1.55780000e-01   1.78983152e+05 
     2714    2715    1       1.09470000e-01   2.90754528e+05 
     2716    2714    1       1.54250000e-01   1.87443200e+05 
     2716    2717    1       1.09540000e-01   2.89892624e+05 
     2716    2718    1       1.54830000e-01   1.84179680e+05 
     2718    2719    1       1.09540000e-01   2.89892624e+05 
     2718    2720    1       1.09540000e-01   2.89892624e+05 
     2721    2722    1       1.39860000e-01   2.96436400e+05 
     2722    2723    1       1.08600000e-01   3.01825392e+05 
     2724    2725    1       1.40560000e-01   2.89591376e+05 
     2724    2759    1       1.40560000e-01   2.89591376e+05 
     2725    2726    1       1.39860000e-01   2.96436400e+05 
     2726    2727    1       1.08600000e-01   3.01825392e+05 
     2726    2728    1       1.39860000e-01   2.96436400e+05 
     2728    2729    1       1.51590000e-01   2.03342400e+05 
     2728    2758    1       1.39860000e-01   2.96436400e+05 
     2729    2730    1       1.09470000e-01   2.90754528e+05 
     2729    2731    1       1.55780000e-01   1.78983152e+05 
     2729    2753    1       1.54250000e-01   1.87443200e+05 
     2731    2732    1       1.09470000e-01   2.90754528e+05 
     2731    2733    1       1.54250000e-01   1.87443200e+05 
     2731    2758    1       1.51590000e-01   2.03342400e+05 
     2733    2734    1       1.09540000e-01   2.89892624e+05 
     2733    2735    1       1.54250000e-01   1.87443200e+05 
     2733    2755    1       1.54830000e-01   1.84179680e+05 
     2735    2736    1       1.09470000e-01   2.90754528e+05 
     2735    2737    1       1.51590000e-01   2.03342400e+05 
     2735    2751    1       1.55780000e-01   1.78983152e+05 
     2737    2738    1       1.39860000e-01   2.96436400e+05 
     2737    2746    1       1.39860000e-01   2.96436400e+05 
     2738    2739    1       1.39860000e-01   2.96436400e+05 
     2738    2751    1       1.51590000e-01   2.03342400e+05 
     2739    2740    1       1.51470000e-01   2.04103888e+05 
     2739    2744    1       1.39860000e-01   2.96436400e+05 
     2740    2741    1       1.09620000e-01   2.88905200e+05 
     2740    2742    1       1.09620000e-01   2.88905200e+05 
     2740    2743    1       1.09620000e-01   2.88905200e+05 
     2744    435     1       1.51590000e-01   2.03342400e+05 
     2744    2745    1       1.39860000e-01   2.96436400e+05 
     2745    437     1       1.51590000e-01   2.03342400e+05 
     2745    2746    1       1.39860000e-01   2.96436400e+05 
     2746    2747    1       1.51470000e-01   2.04103888e+05 
     2747    2748    1       1.09620000e-01   2.88905200e+05 
     2747    2749    1       1.09620000e-01   2.88905200e+05 
     2747    2750    1       1.09620000e-01   2.88905200e+05 
     2751    2752    1       1.09470000e-01   2.90754528e+05 
     2751    2753    1       1.54250000e-01   1.87443200e+05 
     2753    2754    1       1.09540000e-01   2.89892624e+05 
     2753    2755    1       1.54830000e-01   1.84179680e+05 
     2755    2756    1       1.09540000e-01   2.89892624e+05 
     2755    2757    1       1.09540000e-01   2.89892624e+05 
     2758    2759    1       1.39860000e-01   2.96436400e+05 
     2759    2760    1       1.08600000e-01   3.01825392e+05 
     2761    2762    1       1.09620000e-01   2.88905200e+05 
     2761    2763    1       1.09620000e-01   2.88905200e+05 
     2761    2764    1       1.09620000e-01   2.88905200e+05 
     2761    2765    1       1.53720000e-01   1.90489152e+05 
     2765    2766    1       1.53720000e-01   1.90489152e+05 
     2765    2770    1       1.51510000e-01   2.03844480e+05 
     2765    2794    1       1.51510000e-01   2.03844480e+05 
     2766    2767    1       1.09620000e-01   2.88905200e+05 
     2766    2768    1       1.09620000e-01   2.88905200e+05 
     2766    2769    1       1.09620000e-01   2.88905200e+05 
     2770    2771    1       1.40560000e-01   2.89591376e+05 
     2770    2791    1       1.39860000e-01   2.96436400e+05 
     2771    2772    1       1.40560000e-01   2.89591376e+05 
     2771    2793    1       1.48290000e-01   2.25408816e+05 
     2772    2773    1       1.08600000e-01   3.01825392e+05 
     2772    2774    1       1.39860000e-01   2.96436400e+05 
     2774    2775    1       1.51590000e-01   2.03342400e+05 
     2774    2790    1       1.39860000e-01   2.96436400e+05 
     2775    2776    1       1.09470000e-01   2.90754528e+05 
     2775    2777    1       1.55780000e-01   1.78983152e+05 
     2775    2785    1       1.54250000e-01   1.87443200e+05 
     2777    2778    1       1.09470000e-01   2.90754528e+05 
     2777    2779    1       1.54250000e-01   1.87443200e+05 
     2777    2790    1       1.51590000e-01   2.03342400e+05 
     2779    2780    1       1.09540000e-01   2.89892624e+05 
     2779    2781    1       1.54250000e-01   1.87443200e+05 
     2779    2787    1       1.54830000e-01   1.84179680e+05 
     2781    2782    1       1.09470000e-01   2.90754528e+05 
     2781    2783    1       1.55780000e-01   1.78983152e+05 
     2783    2784    1       1.09470000e-01   2.90754528e+05 
     2785    2783    1       1.54250000e-01   1.87443200e+05 
     2785    2786    1       1.09540000e-01   2.89892624e+05 
     2785    2787    1       1.54830000e-01   1.84179680e+05 
     2787    2788    1       1.09540000e-01   2.89892624e+05 
     2787    2789    1       1.09540000e-01   2.89892624e+05 
     2790    2791    1       1.39860000e-01   2.96436400e+05 
     2791    2792    1       1.08600000e-01   3.01825392e+05 
     2793    2794    1       1.40560000e-01   2.89591376e+05 
     2793    2828    1       1.40560000e-01   2.89591376e+05 
     2794    2795    1       1.39860000e-01   2.96436400e+05 
     2795    2796    1       1.08600000e-01   3.01825392e+05 
     2795    2797    1       1.39860000e-01   2.96436400e+05 
     2797    2798    1       1.51590000e-01   2.03342400e+05 
     2797    2827    1       1.39860000e-01   2.96436400e+05 
     2798    2799    1       1.09470000e-01   2.90754528e+05 
     2798    2800    1       1.55780000e-01   1.78983152e+05 
     2798    2822    1       1.54250000e-01   1.87443200e+05 
     2800    2801    1       1.09470000e-01   2.90754528e+05 
     2800    2802    1       1.54250000e-01   1.87443200e+05 
     2800    2827    1       1.51590000e-01   2.03342400e+05 
     2802    2803    1       1.09540000e-01   2.89892624e+05 
     2802    2804    1       1.54250000e-01   1.87443200e+05 
     2802    2824    1       1.54830000e-01   1.84179680e+05 
     2804    2805    1       1.09470000e-01   2.90754528e+05 
     2804    2806    1       1.51590000e-01   2.03342400e+05 
     2804    2820    1       1.55780000e-01   1.78983152e+05 
     2806    2807    1       1.39860000e-01   2.96436400e+05 
     2806    2815    1       1.39860000e-01   2.96436400e+05 
     2807    2808    1       1.39860000e-01   2.96436400e+05 
     2807    2820    1       1.51590000e-01   2.03342400e+05 
     2808    2809    1       1.51470000e-01   2.04103888e+05 
     2808    2813    1       1.39860000e-01   2.96436400e+05 
     2809    2810    1       1.09620000e-01   2.88905200e+05 
     2809    2811    1       1.09620000e-01   2.88905200e+05 
     2809    2812    1       1.09620000e-01   2.88905200e+05 
     2813    2814    1       1.39860000e-01   2.96436400e+05 
     2814    2815    1       1.39860000e-01   2.96436400e+05 
     2815    2816    1       1.51470000e-01   2.04103888e+05 
     2816    2817    1       1.09620000e-01   2.88905200e+05 
     2816    2818    1       1.09620000e-01   2.88905200e+05 
     2816    2819    1       1.09620000e-01   2.88905200e+05 
     2820    2821    1       1.09470000e-01   2.90754528e+05 
     2820    2822    1       1.54250000e-01   1.87443200e+05 
     2822    2823    1       1.09540000e-01   2.89892624e+05 
     2822    2824    1       1.54830000e-01   1.84179680e+05 
     2824    2825    1       1.09540000e-01   2.89892624e+05 
     2824    2826    1       1.09540000e-01   2.89892624e+05 
     2827    2828    1       1.39860000e-01   2.96436400e+05 
     2828    2829    1       1.08600000e-01   3.01825392e+05 
     2830    2831    1       1.09620000e-01   2.88905200e+05 
     2830    2832    1       1.09620000e-01   2.88905200e+05 
     2830    2833    1       1.09620000e-01   2.88905200e+05 
     2830    2834    1       1.53720000e-01   1.90489152e+05 
     2834    2835    1       1.53720000e-01   1.90489152e+05 
     2834    2839    1       1.51510000e-01   2.03844480e+05 
     2834    2863    1       1.51510000e-01   2.03844480e+05 
     2835    2836    1       1.09620000e-01   2.88905200e+05 
     2835    2837    1       1.09620000e-01   2.88905200e+05 
     2835    2838    1       1.09620000e-01   2.88905200e+05 
     2839    2840    1       1.40560000e-01   2.89591376e+05 
     2839    2860    1       1.39860000e-01   2.96436400e+05 
     2840    2841    1       1.40560000e-01   2.89591376e+05 
     2840    2862    1       1.48290000e-01   2.25408816e+05 
     2841    2842    1       1.08600000e-01   3.01825392e+05 
     2841    2843    1       1.39860000e-01   2.96436400e+05 
     2843    2844    1       1.51590000e-01   2.03342400e+05 
     2843    2859    1       1.39860000e-01   2.96436400e+05 
     2844    2845    1       1.09470000e-01   2.90754528e+05 
     2844    2846    1       1.55780000e-01   1.78983152e+05 
     2844    2854    1       1.54250000e-01   1.87443200e+05 
     2846    2847    1       1.09470000e-01   2.90754528e+05 
     2846    2848    1       1.54250000e-01   1.87443200e+05 
     2846    2859    1       1.51590000e-01   2.03342400e+05 
     2848    2849    1       1.09540000e-01   2.89892624e+05 
     2848    2850    1       1.54250000e-01   1.87443200e+05 
     2848    2856    1       1.54830000e-01   1.84179680e+05 
     2850    2851    1       1.09470000e-01   2.90754528e+05 
     2850    2852    1       1.55780000e-01   1.78983152e+05 
     2852    2853    1       1.09470000e-01   2.90754528e+05 
     2854    2852    1       1.54250000e-01   1.87443200e+05 
     2854    2855    1       1.09540000e-01   2.89892624e+05 
     2854    2856    1       1.54830000e-01   1.84179680e+05 
     2856    2857    1       1.09540000e-01   2.89892624e+05 
     2856    2858    1       1.09540000e-01   2.89892624e+05 
     2859    2860    1       1.39860000e-01   2.96436400e+05 
     2860    2861    1       1.08600000e-01   3.01825392e+05 
     2862    2863    1       1.40560000e-01   2.89591376e+05 
     2862    2897    1       1.40560000e-01   2.89591376e+05 
     2863    2864    1       1.39860000e-01   2.96436400e+05 
     2864    2865    1       1.08600000e-01   3.01825392e+05 
     2864    2866    1       1.39860000e-01   2.96436400e+05 
     2866    2867    1       1.51590000e-01   2.03342400e+05 
     2866    2896    1       1.39860000e-01   2.96436400e+05 
     2867    2868    1       1.09470000e-01   2.90754528e+05 
     2867    2869    1       1.55780000e-01   1.78983152e+05 
     2867    2891    1       1.54250000e-01   1.87443200e+05 
     2869    2870    1       1.09470000e-01   2.90754528e+05 
     2869    2871    1       1.54250000e-01   1.87443200e+05 
     2869    2896    1       1.51590000e-01   2.03342400e+05 
     2871    2872    1       1.09540000e-01   2.89892624e+05 
     2871    2873    1       1.54250000e-01   1.87443200e+05 
     2871    2893    1       1.54830000e-01   1.84179680e+05 
     2873    2874    1       1.09470000e-01   2.90754528e+05 
     2873    2875    1       1.51590000e-01   2.03342400e+05 
     2873    2889    1       1.55780000e-01   1.78983152e+05 
     2875    2876    1       1.39860000e-01   2.96436400e+05 
     2875    2884    1       1.39860000e-01   2.96436400e+05 
     2876    2877    1       1.39860000e-01   2.96436400e+05 
     2876    2889    1       1.51590000e-01   2.03342400e+05 
     2877    2878    1       1.51470000e-01   2.04103888e+05 
     2877    2882    1       1.39860000e-01   2.96436400e+05 
     2878    2879    1       1.09620000e-01   2.88905200e+05 
     2878    2880    1       1.09620000e-01   2.88905200e+05 
     2878    2881    1       1.09620000e-01   2.88905200e+05 
     2882    1058    1       1.51590000e-01   2.03342400e+05 
     2882    2883    1       1.39860000e-01   2.96436400e+05 
     2883    1056    1       1.51590000e-01   2.03342400e+05 
     2883    2884    1       1.39860000e-01   2.96436400e+05 
     2884    2885    1       1.51470000e-01   2.04103888e+05 
     2885    2886    1       1.09620000e-01   2.88905200e+05 
     2885    2887    1       1.09620000e-01   2.88905200e+05 
     2885    2888    1       1.09620000e-01   2.88905200e+05 
     2889    2890    1       1.09470000e-01   2.90754528e+05 
     2889    2891    1       1.54250000e-01   1.87443200e+05 
     2891    2892    1       1.09540000e-01   2.89892624e+05 
     2891    2893    1       1.54830000e-01   1.84179680e+05 
     2893    2894    1       1.09540000e-01   2.89892624e+05 
     2893    2895    1       1.09540000e-01   2.89892624e+05 
     2896    2897    1       1.39860000e-01   2.96436400e+05 
     2897    2898    1       1.08600000e-01   3.01825392e+05 
     2899    2900    1       1.09620000e-01   2.88905200e+05 
     2899    2901    1       1.09620000e-01   2.88905200e+05 
     2899    2902    1       1.09620000e-01   2.88905200e+05 
     2899    2903    1       1.53720000e-01   1.90489152e+05 
     2903    2904    1       1.53720000e-01   1.90489152e+05 
     2903    2908    1       1.51510000e-01   2.03844480e+05 
     2903    2932    1       1.51510000e-01   2.03844480e+05 
     2904    2905    1       1.09620000e-01   2.88905200e+05 
     2904    2906    1       1.09620000e-01   2.88905200e+05 
     2904    2907    1       1.09620000e-01   2.88905200e+05 
     2908    2909    1       1.40560000e-01   2.89591376e+05 
     2908    2929    1       1.39860000e-01   2.96436400e+05 
     2909    2910    1       1.40560000e-01   2.89591376e+05 
     2909    2931    1       1.48290000e-01   2.25408816e+05 
     2910    2911    1       1.08600000e-01   3.01825392e+05 
     2910    2912    1       1.39860000e-01   2.96436400e+05 
     2912    2913    1       1.51590000e-01   2.03342400e+05 
     2912    2928    1       1.39860000e-01   2.96436400e+05 
     2913    2914    1       1.09470000e-01   2.90754528e+05 
     2913    2915    1       1.55780000e-01   1.78983152e+05 
     2913    2923    1       1.54250000e-01   1.87443200e+05 
     2915    2916    1       1.09470000e-01   2.90754528e+05 
     2915    2917    1       1.54250000e-01   1.87443200e+05 
     2915    2928    1       1.51590000e-01   2.03342400e+05 
     2917    2918    1       1.09540000e-01   2.89892624e+05 
     2917    2919    1       1.54250000e-01   1.87443200e+05 
     2917    2925    1       1.54830000e-01   1.84179680e+05 
     2919    2920    1       1.09470000e-01   2.90754528e+05 
     2919    2921    1       1.55780000e-01   1.78983152e+05 
     2921    2922    1       1.09470000e-01   2.90754528e+05 
     2923    2921    1       1.54250000e-01   1.87443200e+05 
     2923    2924    1       1.09540000e-01   2.89892624e+05 
     2923    2925    1       1.54830000e-01   1.84179680e+05 
     2925    2926    1       1.09540000e-01   2.89892624e+05 
     2925    2927    1       1.09540000e-01   2.89892624e+05 
     2928    2929    1       1.39860000e-01   2.96436400e+05 
     2929    2930    1       1.08600000e-01   3.01825392e+05 
     2931    2932    1       1.40560000e-01   2.89591376e+05 
     2931    2966    1       1.40560000e-01   2.89591376e+05 
     2932    2933    1       1.39860000e-01   2.96436400e+05 
     2933    2934    1       1.08600000e-01   3.01825392e+05 
     2933    2935    1       1.39860000e-01   2.96436400e+05 
     2935    2936    1       1.51590000e-01   2.03342400e+05 
     2935    2965    1       1.39860000e-01   2.96436400e+05 
     2936    2937    1       1.09470000e-01   2.90754528e+05 
     2936    2938    1       1.55780000e-01   1.78983152e+05 
     2936    2960    1       1.54250000e-01   1.87443200e+05 
     2938    2939    1       1.09470000e-01   2.90754528e+05 
     2938    2940    1       1.54250000e-01   1.87443200e+05 
     2938    2965    1       1.51590000e-01   2.03342400e+05 
     2940    2941    1       1.09540000e-01   2.89892624e+05 
     2940    2942    1       1.54250000e-01   1.87443200e+05 
     2940    2962    1       1.54830000e-01   1.84179680e+05 
     2942    2943    1       1.09470000e-01   2.90754528e+05 
     2942    2944    1       1.51590000e-01   2.03342400e+05 
     2942    2958    1       1.55780000e-01   1.78983152e+05 
     2944    2945    1       1.39860000e-01   2.96436400e+05 
     2944    2953    1       1.39860000e-01   2.96436400e+05 
     2945    2946    1       1.39860000e-01   2.96436400e+05 
     2945    2958    1       1.51590000e-01   2.03342400e+05 
     2946    2947    1       1.51470000e-01   2.04103888e+05 
     2946    2951    1       1.39860000e-01   2.96436400e+05 
     2947    2948    1       1.09620000e-01   2.88905200e+05 
     2947    2949    1       1.09620000e-01   2.88905200e+05 
     2947    2950    1       1.09620000e-01   2.88905200e+05 
     2951    2952    1       1.39860000e-01   2.96436400e+05 
     2951    3542    1       1.51590000e-01   2.03342400e+05 
     2952    2953    1       1.39860000e-01   2.96436400e+05 
     2952    3540    1       1.51590000e-01   2.03342400e+05 
     2953    2954    1       1.51470000e-01   2.04103888e+05 
     2954    2955    1       1.09620000e-01   2.88905200e+05 
     2954    2956    1       1.09620000e-01   2.88905200e+05 
     2954    2957    1       1.09620000e-01   2.88905200e+05 
     2958    2959    1       1.09470000e-01   2.90754528e+05 
     2958    2960    1       1.54250000e-01   1.87443200e+05 
     2960    2961    1       1.09540000e-01   2.89892624e+05 
     2960    2962    1       1.54830000e-01   1.84179680e+05 
     2962    2963    1       1.09540000e-01   2.89892624e+05 
     2962    2964    1       1.09540000e-01   2.89892624e+05 
     2965    2966    1       1.39860000e-01   2.96436400e+05 
     2966    2967    1       1.08600000e-01   3.01825392e+05 
     2968    2969    1       1.09620000e-01   2.88905200e+05 
     2968    2970    1       1.09620000e-01   2.88905200e+05 
     2968    2971    1       1.09620000e-01   2.88905200e+05 
     2968    2972    1       1.53720000e-01   1.90489152e+05 
     2972    2973    1       1.53720000e-01   1.90489152e+05 
     2972    2977    1       1.51510000e-01   2.03844480e+05 
     2972    3001    1       1.51510000e-01   2.03844480e+05 
     2973    2974    1       1.09620000e-01   2.88905200e+05 
     2973    2975    1       1.09620000e-01   2.88905200e+05 
     2973    2976    1       1.09620000e-01   2.88905200e+05 
     2977    2978    1       1.40560000e-01   2.89591376e+05 
     2977    2998    1       1.39860000e-01   2.96436400e+05 
     2978    2979    1       1.40560000e-01   2.89591376e+05 
     2978    3000    1       1.48290000e-01   2.25408816e+05 
     2979    2980    1       1.08600000e-01   3.01825392e+05 
     2979    2981    1       1.39860000e-01   2.96436400e+05 
     2981    2982    1       1.51590000e-01   2.03342400e+05 
     2981    2997    1       1.39860000e-01   2.96436400e+05 
     2982    2983    1       1.09470000e-01   2.90754528e+05 
     2982    2984    1       1.55780000e-01   1.78983152e+05 
     2982    2992    1       1.54250000e-01   1.87443200e+05 
     2984    2985    1       1.09470000e-01   2.90754528e+05 
     2984    2986    1       1.54250000e-01   1.87443200e+05 
     2984    2997    1       1.51590000e-01   2.03342400e+05 
     2986    2987    1       1.09540000e-01   2.89892624e+05 
     2986    2988    1       1.54250000e-01   1.87443200e+05 
     2986    2994    1       1.54830000e-01   1.84179680e+05 
     2988    2989    1       1.09470000e-01   2.90754528e+05 
     2988    2990    1       1.55780000e-01   1.78983152e+05 
     2990    2991    1       1.09470000e-01   2.90754528e+05 
     2992    2990    1       1.54250000e-01   1.87443200e+05 
     2992    2993    1       1.09540000e-01   2.89892624e+05 
     2992    2994    1       1.54830000e-01   1.84179680e+05 
     2994    2995    1       1.09540000e-01   2.89892624e+05 
     2994    2996    1       1.09540000e-01   2.89892624e+05 
     2997    2998    1       1.39860000e-01   2.96436400e+05 
     2998    2999    1       1.08600000e-01   3.01825392e+05 
     3000    3001    1       1.40560000e-01   2.89591376e+05 
     3000    3035    1       1.40560000e-01   2.89591376e+05 
     3001    3002    1       1.39860000e-01   2.96436400e+05 
     3002    3003    1       1.08600000e-01   3.01825392e+05 
     3002    3004    1       1.39860000e-01   2.96436400e+05 
     3004    3005    1       1.51590000e-01   2.03342400e+05 
     3004    3034    1       1.39860000e-01   2.96436400e+05 
     3005    3006    1       1.09470000e-01   2.90754528e+05 
     3005    3007    1       1.55780000e-01   1.78983152e+05 
     3005    3029    1       1.54250000e-01   1.87443200e+05 
     3007    3008    1       1.09470000e-01   2.90754528e+05 
     3007    3009    1       1.54250000e-01   1.87443200e+05 
     3007    3034    1       1.51590000e-01   2.03342400e+05 
     3009    3010    1       1.09540000e-01   2.89892624e+05 
     3009    3011    1       1.54250000e-01   1.87443200e+05 
     3009    3031    1       1.54830000e-01   1.84179680e+05 
     3011    3012    1       1.09470000e-01   2.90754528e+05 
     3011    3013    1       1.51590000e-01   2.03342400e+05 
     3011    3027    1       1.55780000e-01   1.78983152e+05 
     3013    3014    1       1.39860000e-01   2.96436400e+05 
     3013    3022    1       1.39860000e-01   2.96436400e+05 
     3014    3015    1       1.39860000e-01   2.96436400e+05 
     3014    3027    1       1.51590000e-01   2.03342400e+05 
     3015    3016    1       1.51470000e-01   2.04103888e+05 
     3015    3020    1       1.39860000e-01   2.96436400e+05 
     3016    3017    1       1.09620000e-01   2.88905200e+05 
     3016    3018    1       1.09620000e-01   2.88905200e+05 
     3016    3019    1       1.09620000e-01   2.88905200e+05 
     3020    3021    1       1.39860000e-01   2.96436400e+05 
     3020    3954    1       1.51590000e-01   2.03342400e+05 
     3021    3022    1       1.39860000e-01   2.96436400e+05 
     3021    3956    1       1.51590000e-01   2.03342400e+05 
     3022    3023    1       1.51470000e-01   2.04103888e+05 
     3023    3024    1       1.09620000e-01   2.88905200e+05 
     3023    3025    1       1.09620000e-01   2.88905200e+05 
     3023    3026    1       1.09620000e-01   2.88905200e+05 
     3027    3028    1       1.09470000e-01   2.90754528e+05 
     3027    3029    1       1.54250000e-01   1.87443200e+05 
     3029    3030    1       1.09540000e-01   2.89892624e+05 
     3029    3031    1       1.54830000e-01   1.84179680e+05 
     3031    3032    1       1.09540000e-01   2.89892624e+05 
     3031    3033    1       1.09540000e-01   2.89892624e+05 
     3034    3035    1       1.39860000e-01   2.96436400e+05 
     3035    3036    1       1.08600000e-01   3.01825392e+05 
     3037    3038    1       1.09620000e-01   2.88905200e+05 
     3037    3039    1       1.09620000e-01   2.88905200e+05 
     3037    3040    1       1.09620000e-01   2.88905200e+05 
     3037    3041    1       1.53720000e-01   1.90489152e+05 
     3041    3042    1       1.53720000e-01   1.90489152e+05 
     3041    3046    1       1.51510000e-01   2.03844480e+05 
     3041    3070    1       1.51510000e-01   2.03844480e+05 
     3042    3043    1       1.09620000e-01   2.88905200e+05 
     3042    3044    1       1.09620000e-01   2.88905200e+05 
     3042    3045    1       1.09620000e-01   2.88905200e+05 
     3046    3047    1       1.40560000e-01   2.89591376e+05 
     3046    3067    1       1.39860000e-01   2.96436400e+05 
     3047    3048    1       1.40560000e-01   2.89591376e+05 
     3047    3069    1       1.48290000e-01   2.25408816e+05 
     3048    3049    1       1.08600000e-01   3.01825392e+05 
     3048    3050    1       1.39860000e-01   2.96436400e+05 
     3050    3051    1       1.51590000e-01   2.03342400e+05 
     3050    3066    1       1.39860000e-01   2.96436400e+05 
     3051    3052    1       1.09470000e-01   2.90754528e+05 
     3051    3053    1       1.55780000e-01   1.78983152e+05 
     3051    3061    1       1.54250000e-01   1.87443200e+05 
     3053    3054    1       1.09470000e-01   2.90754528e+05 
     3053    3055    1       1.54250000e-01   1.87443200e+05 
     3053    3066    1       1.51590000e-01   2.03342400e+05 
     3055    3056    1       1.09540000e-01   2.89892624e+05 
     3055    3057    1       1.54250000e-01   1.87443200e+05 
     3055    3063    1       1.54830000e-01   1.84179680e+05 
     3057    3058    1       1.09470000e-01   2.90754528e+05 
     3057    3059    1       1.55780000e-01   1.78983152e+05 
     3059    3060    1       1.09470000e-01   2.90754528e+05 
     3061    3059    1       1.54250000e-01   1.87443200e+05 
     3061    3062    1       1.09540000e-01   2.89892624e+05 
     3061    3063    1       1.54830000e-01   1.84179680e+05 
     3063    3064    1       1.09540000e-01   2.89892624e+05 
     3063    3065    1       1.09540000e-01   2.89892624e+05 
     3066    3067    1       1.39860000e-01   2.96436400e+05 
     3067    3068    1       1.08600000e-01   3.01825392e+05 
     3069    3070    1       1.40560000e-01   2.89591376e+05 
     3069    3104    1       1.40560000e-01   2.89591376e+05 
     3070    3071    1       1.39860000e-01   2.96436400e+05 
     3071    3072    1       1.08600000e-01   3.01825392e+05 
     3071    3073    1       1.39860000e-01   2.96436400e+05 
     3073    3074    1       1.51590000e-01   2.03342400e+05 
     3073    3103    1       1.39860000e-01   2.96436400e+05 
     3074    3075    1       1.09470000e-01   2.90754528e+05 
     3074    3076    1       1.55780000e-01   1.78983152e+05 
     3074    3098    1       1.54250000e-01   1.87443200e+05 
     3076    3077    1       1.09470000e-01   2.90754528e+05 
     3076    3078    1       1.54250000e-01   1.87443200e+05 
     3076    3103    1       1.51590000e-01   2.03342400e+05 
     3078    3079    1       1.09540000e-01   2.89892624e+05 
     3078    3080    1       1.54250000e-01   1.87443200e+05 
     3078    3100    1       1.54830000e-01   1.84179680e+05 
     3080    3081    1       1.09470000e-01   2.90754528e+05 
     3080    3082    1       1.51590000e-01   2.03342400e+05 
     3080    3096    1       1.55780000e-01   1.78983152e+05 
     3082    3083    1       1.39860000e-01   2.96436400e+05 
     3082    3091    1       1.39860000e-01   2.96436400e+05 
     3083    3084    1       1.39860000e-01   2.96436400e+05 
     3083    3096    1       1.51590000e-01   2.03342400e+05 
     3084    3085    1       1.51470000e-01   2.04103888e+05 
     3084    3089    1       1.39860000e-01   2.96436400e+05 
     3085    3086    1       1.09620000e-01   2.88905200e+05 
     3085    3087    1       1.09620000e-01   2.88905200e+05 
     3085    3088    1       1.09620000e-01   2.88905200e+05 
     3089    782     1       1.51590000e-01   2.03342400e+05 
     3089    3090    1       1.39860000e-01   2.96436400e+05 
     3090    780     1       1.51590000e-01   2.03342400e+05 
     3090    3091    1       1.39860000e-01   2.96436400e+05 
     3091    3092    1       1.51470000e-01   2.04103888e+05 
     3092    3093    1       1.09620000e-01   2.88905200e+05 
     3092    3094    1       1.09620000e-01   2.88905200e+05 
     3092    3095    1       1.09620000e-01   2.88905200e+05 
     3096    3097    1       1.09470000e-01   2.90754528e+05 
     3096    3098    1       1.54250000e-01   1.87443200e+05 
     3098    3099    1       1.09540000e-01   2.89892624e+05 
     3098    3100    1       1.54830000e-01   1.84179680e+05 
     3100    3101    1       1.09540000e-01   2.89892624e+05 
     3100    3102    1       1.09540000e-01   2.89892624e+05 
     3103    3104    1       1.39860000e-01   2.96436400e+05 
     3104    3105    1       1.08600000e-01   3.01825392e+05 
     3106    3107    1       1.09620000e-01   2.88905200e+05 
     3106    3108    1       1.09620000e-01   2.88905200e+05 
     3106    3109    1       1.09620000e-01   2.88905200e+05 
     3106    3110    1       1.53720000e-01   1.90489152e+05 
     3110    3111    1       1.53720000e-01   1.90489152e+05 
     3110    3115    1       1.51510000e-01   2.03844480e+05 
     3110    3139    1       1.51510000e-01   2.03844480e+05 
     3111    3112    1       1.09620000e-01   2.88905200e+05 
     3111    3113    1       1.09620000e-01   2.88905200e+05 
     3111    3114    1       1.09620000e-01   2.88905200e+05 
     3115    3116    1       1.40560000e-01   2.89591376e+05 
     3115    3136    1       1.39860000e-01   2.96436400e+05 
     3116    3117    1       1.40560000e-01   2.89591376e+05 
     3116    3138    1       1.48290000e-01   2.25408816e+05 
     3117    3118    1       1.08600000e-01   3.01825392e+05 
     3117    3119    1       1.39860000e-01   2.96436400e+05 
     3119    3120    1       1.51590000e-01   2.03342400e+05 
     3119    3135    1       1.39860000e-01   2.96436400e+05 
     3120    3121    1       1.09470000e-01   2.90754528e+05 
     3120    3122    1       1.55780000e-01   1.78983152e+05 
     3120    3130    1       1.54250000e-01   1.87443200e+05 
     3122    3123    1       1.09470000e-01   2.90754528e+05 
     3122    3124    1       1.54250000e-01   1.87443200e+05 
     3122    3135    1       1.51590000e-01   2.03342400e+05 
     3124    3125    1       1.09540000e-01   2.89892624e+05 
     3124    3126    1       1.54250000e-01   1.87443200e+05 
     3124    3132    1       1.54830000e-01   1.84179680e+05 
     3126    3127    1       1.09470000e-01   2.90754528e+05 
     3126    3128    1       1.55780000e-01   1.78983152e+05 
     3128    3129    1       1.09470000e-01   2.90754528e+05 
     3130    3128    1       1.54250000e-01   1.87443200e+05 
     3130    3131    1       1.09540000e-01   2.89892624e+05 
     3130    3132    1       1.54830000e-01   1.84179680e+05 
     3132    3133    1       1.09540000e-01   2.89892624e+05 
     3132    3134    1       1.09540000e-01   2.89892624e+05 
     3135    3136    1       1.39860000e-01   2.96436400e+05 
     3136    3137    1       1.08600000e-01   3.01825392e+05 
     3138    3139    1       1.40560000e-01   2.89591376e+05 
     3138    3173    1       1.40560000e-01   2.89591376e+05 
     3139    3140    1       1.39860000e-01   2.96436400e+05 
     3140    3141    1       1.08600000e-01   3.01825392e+05 
     3140    3142    1       1.39860000e-01   2.96436400e+05 
     3142    3143    1       1.51590000e-01   2.03342400e+05 
     3142    3172    1       1.39860000e-01   2.96436400e+05 
     3143    3144    1       1.09470000e-01   2.90754528e+05 
     3143    3145    1       1.55780000e-01   1.78983152e+05 
     3143    3167    1       1.54250000e-01   1.87443200e+05 
     3145    3146    1       1.09470000e-01   2.90754528e+05 
     3145    3147    1       1.54250000e-01   1.87443200e+05 
     3145    3172    1       1.51590000e-01   2.03342400e+05 
     3147    3148    1       1.09540000e-01   2.89892624e+05 
     3147    3149    1       1.54250000e-01   1.87443200e+05 
     3147    3169    1       1.54830000e-01   1.84179680e+05 
     3149    3150    1       1.09470000e-01   2.90754528e+05 
     3149    3151    1       1.51590000e-01   2.03342400e+05 
     3149    3165    1       1.55780000e-01   1.78983152e+05 
     3151    3152    1       1.39860000e-01   2.96436400e+05 
     3151    3160    1       1.39860000e-01   2.96436400e+05 
     3152    3153    1       1.39860000e-01   2.96436400e+05 
     3152    3165    1       1.51590000e-01   2.03342400e+05 
     3153    3154    1       1.51470000e-01   2.04103888e+05 
     3153    3158    1       1.39860000e-01   2.96436400e+05 
     3154    3155    1       1.09620000e-01   2.88905200e+05 
     3154    3156    1       1.09620000e-01   2.88905200e+05 
     3154    3157    1       1.09620000e-01   2.88905200e+05 
     3158    3159    1       1.39860000e-01   2.96436400e+05 
     3158    3333    1       1.51590000e-01   2.03342400e+05 
     3159    3160    1       1.39860000e-01   2.96436400e+05 
     3159    3335    1       1.51590000e-01   2.03342400e+05 
     3160    3161    1       1.51470000e-01   2.04103888e+05 
     3161    3162    1       1.09620000e-01   2.88905200e+05 
     3161    3163    1       1.09620000e-01   2.88905200e+05 
     3161    3164    1       1.09620000e-01   2.88905200e+05 
     3165    3166    1       1.09470000e-01   2.90754528e+05 
     3165    3167    1       1.54250000e-01   1.87443200e+05 
     3167    3168    1       1.09540000e-01   2.89892624e+05 
     3167    3169    1       1.54830000e-01   1.84179680e+05 
     3169    3170    1       1.09540000e-01   2.89892624e+05 
     3169    3171    1       1.09540000e-01   2.89892624e+05 
     3172    3173    1       1.39860000e-01   2.96436400e+05 
     3173    3174    1       1.08600000e-01   3.01825392e+05 
     3175    3176    1       1.09620000e-01   2.88905200e+05 
     3175    3177    1       1.09620000e-01   2.88905200e+05 
     3175    3178    1       1.09620000e-01   2.88905200e+05 
     3175    3179    1       1.53720000e-01   1.90489152e+05 
     3179    3180    1       1.53720000e-01   1.90489152e+05 
     3179    3184    1       1.51510000e-01   2.03844480e+05 
     3179    3208    1       1.51510000e-01   2.03844480e+05 
     3180    3181    1       1.09620000e-01   2.88905200e+05 
     3180    3182    1       1.09620000e-01   2.88905200e+05 
     3180    3183    1       1.09620000e-01   2.88905200e+05 
     3184    3185    1       1.40560000e-01   2.89591376e+05 
     3184    3205    1       1.39860000e-01   2.96436400e+05 
     3185    3186    1       1.40560000e-01   2.89591376e+05 
     3185    3207    1       1.48290000e-01   2.25408816e+05 
     3186    3187    1       1.08600000e-01   3.01825392e+05 
     3186    3188    1       1.39860000e-01   2.96436400e+05 
     3188    3189    1       1.51590000e-01   2.03342400e+05 
     3188    3204    1       1.39860000e-01   2.96436400e+05 
     3189    3190    1       1.09470000e-01   2.90754528e+05 
     3189    3191    1       1.55780000e-01   1.78983152e+05 
     3189    3199    1       1.54250000e-01   1.87443200e+05 
     3191    3192    1       1.09470000e-01   2.90754528e+05 
     3191    3193    1       1.54250000e-01   1.87443200e+05 
     3191    3204    1       1.51590000e-01   2.03342400e+05 
     3193    3194    1       1.09540000e-01   2.89892624e+05 
     3193    3195    1       1.54250000e-01   1.87443200e+05 
     3193    3201    1       1.54830000e-01   1.84179680e+05 
     3195    3196    1       1.09470000e-01   2.90754528e+05 
     3195    3197    1       1.55780000e-01   1.78983152e+05 
     3197    3198    1       1.09470000e-01   2.90754528e+05 
     3199    3197    1       1.54250000e-01   1.87443200e+05 
     3199    3200    1       1.09540000e-01   2.89892624e+05 
     3199    3201    1       1.54830000e-01   1.84179680e+05 
     3201    3202    1       1.09540000e-01   2.89892624e+05 
     3201    3203    1       1.09540000e-01   2.89892624e+05 
     3204    3205    1       1.39860000e-01   2.96436400e+05 
     3205    3206    1       1.08600000e-01   3.01825392e+05 
     3207    3208    1       1.40560000e-01   2.89591376e+05 
     3207    3242    1       1.40560000e-01   2.89591376e+05 
     3208    3209    1       1.39860000e-01   2.96436400e+05 
     3209    3210    1       1.08600000e-01   3.01825392e+05 
     3209    3211    1       1.39860000e-01   2.96436400e+05 
     3211    3212    1       1.51590000e-01   2.03342400e+05 
     3211    3241    1       1.39860000e-01   2.96436400e+05 
     3212    3213    1       1.09470000e-01   2.90754528e+05 
     3212    3214    1       1.55780000e-01   1.78983152e+05 
     3212    3236    1       1.54250000e-01   1.87443200e+05 
     3214    3215    1       1.09470000e-01   2.90754528e+05 
     3214    3216    1       1.54250000e-01   1.87443200e+05 
     3214    3241    1       1.51590000e-01   2.03342400e+05 
     3216    3217    1       1.09540000e-01   2.89892624e+05 
     3216    3218    1       1.54250000e-01   1.87443200e+05 
     3216    3238    1       1.54830000e-01   1.84179680e+05 
     3218    3219    1       1.09470000e-01   2.90754528e+05 
     3218    3220    1       1.51590000e-01   2.03342400e+05 
     3218    3234    1       1.55780000e-01   1.78983152e+05 
     3220    3221    1       1.39860000e-01   2.96436400e+05 
     3220    3229    1       1.39860000e-01   2.96436400e+05 
     3221    3222    1       1.39860000e-01   2.96436400e+05 
     3221    3234    1       1.51590000e-01   2.03342400e+05 
     3222    3223    1       1.51470000e-01   2.04103888e+05 
     3222    3227    1       1.39860000e-01   2.96436400e+05 
     3223    3224    1       1.09620000e-01   2.88905200e+05 
     3223    3225    1       1.09620000e-01   2.88905200e+05 
     3223    3226    1       1.09620000e-01   2.88905200e+05 
     3227    2921    1       1.51590000e-01   2.03342400e+05 
     3227    3228    1       1.39860000e-01   2.96436400e+05 
     3228    2919    1       1.51590000e-01   2.03342400e+05 
     3228    3229    1       1.39860000e-01   2.96436400e+05 
     3229    3230    1       1.51470000e-01   2.04103888e+05 
     3230    3231    1       1.09620000e-01   2.88905200e+05 
     3230    3232    1       1.09620000e-01   2.88905200e+05 
     3230    3233    1       1.09620000e-01   2.88905200e+05 
     3234    3235    1       1.09470000e-01   2.90754528e+05 
     3234    3236    1       1.54250000e-01   1.87443200e+05 
     3236    3237    1       1.09540000e-01   2.89892624e+05 
     3236    3238    1       1.54830000e-01   1.84179680e+05 
     3238    3239    1       1.09540000e-01   2.89892624e+05 
     3238    3240    1       1.09540000e-01   2.89892624e+05 
     3241    3242    1       1.39860000e-01   2.96436400e+05 
     3242    3243    1       1.08600000e-01   3.01825392e+05 
     3244    3245    1       1.09620000e-01   2.88905200e+05 
     3244    3246    1       1.09620000e-01   2.88905200e+05 
     3244    3247    1       1.09620000e-01   2.88905200e+05 
     3244    3248    1       1.53720000e-01   1.90489152e+05 
     3248    3249    1       1.53720000e-01   1.90489152e+05 
     3248    3253    1       1.51510000e-01   2.03844480e+05 
     3248    3277    1       1.51510000e-01   2.03844480e+05 
     3249    3250    1       1.09620000e-01   2.88905200e+05 
     3249    3251    1       1.09620000e-01   2.88905200e+05 
     3249    3252    1       1.09620000e-01   2.88905200e+05 
     3253    3254    1       1.40560000e-01   2.89591376e+05 
     3253    3274    1       1.39860000e-01   2.96436400e+05 
     3254    3255    1       1.40560000e-01   2.89591376e+05 
     3254    3276    1       1.48290000e-01   2.25408816e+05 
     3255    3256    1       1.08600000e-01   3.01825392e+05 
     3255    3257    1       1.39860000e-01   2.96436400e+05 
     3257    3258    1       1.51590000e-01   2.03342400e+05 
     3257    3273    1       1.39860000e-01   2.96436400e+05 
     3258    3259    1       1.09470000e-01   2.90754528e+05 
     3258    3260    1       1.55780000e-01   1.78983152e+05 
     3258    3268    1       1.54250000e-01   1.87443200e+05 
     3260    3261    1       1.09470000e-01   2.90754528e+05 
     3260    3262    1       1.54250000e-01   1.87443200e+05 
     3260    3273    1       1.51590000e-01   2.03342400e+05 
     3262    3263    1       1.09540000e-01   2.89892624e+05 
     3262    3264    1       1.54250000e-01   1.87443200e+05 
     3262    3270    1       1.54830000e-01   1.84179680e+05 
     3264    3265    1       1.09470000e-01   2.90754528e+05 
     3264    3266    1       1.55780000e-01   1.78983152e+05 
     3266    3267    1       1.09470000e-01   2.90754528e+05 
     3268    3266    1       1.54250000e-01   1.87443200e+05 
     3268    3269    1       1.09540000e-01   2.89892624e+05 
     3268    3270    1       1.54830000e-01   1.84179680e+05 
     3270    3271    1       1.09540000e-01   2.89892624e+05 
     3270    3272    1       1.09540000e-01   2.89892624e+05 
     3273    3274    1       1.39860000e-01   2.96436400e+05 
     3274    3275    1       1.08600000e-01   3.01825392e+05 
     3276    3277    1       1.40560000e-01   2.89591376e+05 
     3276    3311    1       1.40560000e-01   2.89591376e+05 
     3277    3278    1       1.39860000e-01   2.96436400e+05 
     3278    3279    1       1.08600000e-01   3.01825392e+05 
     3278    3280    1       1.39860000e-01   2.96436400e+05 
     3280    3281    1       1.51590000e-01   2.03342400e+05 
     3280    3310    1       1.39860000e-01   2.96436400e+05 
     3281    3282    1       1.09470000e-01   2.90754528e+05 
     3281    3283    1       1.55780000e-01   1.78983152e+05 
     3281    3305    1       1.54250000e-01   1.87443200e+05 
     3283    3284    1       1.09470000e-01   2.90754528e+05 
     3283    3285    1       1.54250000e-01   1.87443200e+05 
     3283    3310    1       1.51590000e-01   2.03342400e+05 
     3285    3286    1       1.09540000e-01   2.89892624e+05 
     3285    3287    1       1.54250000e-01   1.87443200e+05 
     3285    3307    1       1.54830000e-01   1.84179680e+05 
     3287    3288    1       1.09470000e-01   2.90754528e+05 
     3287    3289    1       1.51590000e-01   2.03342400e+05 
     3287    3303    1       1.55780000e-01   1.78983152e+05 
     3289    3290    1       1.39860000e-01   2.96436400e+05 
     3289    3298    1       1.39860000e-01   2.96436400e+05 
     3290    3291    1       1.39860000e-01   2.96436400e+05 
     3290    3303    1       1.51590000e-01   2.03342400e+05 
     3291    3292    1       1.51470000e-01   2.04103888e+05 
     3291    3296    1       1.39860000e-01   2.96436400e+05 
     3292    3293    1       1.09620000e-01   2.88905200e+05 
     3292    3294    1       1.09620000e-01   2.88905200e+05 
     3292    3295    1       1.09620000e-01   2.88905200e+05 
     3296    3297    1       1.39860000e-01   2.96436400e+05 
     3296    5748    1       1.51590000e-01   2.03342400e+05 
     3297    3298    1       1.39860000e-01   2.96436400e+05 
     3297    5750    1       1.51590000e-01   2.03342400e+05 
     3298    3299    1       1.51470000e-01   2.04103888e+05 
     3299    3300    1       1.09620000e-01   2.88905200e+05 
     3299    3301    1       1.09620000e-01   2.88905200e+05 
     3299    3302    1       1.09620000e-01   2.88905200e+05 
     3303    3304    1       1.09470000e-01   2.90754528e+05 
     3303    3305    1       1.54250000e-01   1.87443200e+05 
     3305    3306    1       1.09540000e-01   2.89892624e+05 
     3305    3307    1       1.54830000e-01   1.84179680e+05 
     3307    3308    1       1.09540000e-01   2.89892624e+05 
     3307    3309    1       1.09540000e-01   2.89892624e+05 
     3310    3311    1       1.39860000e-01   2.96436400e+05 
     3311    3312    1       1.08600000e-01   3.01825392e+05 
     3313    3314    1       1.09620000e-01   2.88905200e+05 
     3313    3315    1       1.09620000e-01   2.88905200e+05 
     3313    3316    1       1.09620000e-01   2.88905200e+05 
     3313    3317    1       1.53720000e-01   1.90489152e+05 
     3317    3318    1       1.53720000e-01   1.90489152e+05 
     3317    3322    1       1.51510000e-01   2.03844480e+05 
     3317    3346    1       1.51510000e-01   2.03844480e+05 
     3318    3319    1       1.09620000e-01   2.88905200e+05 
     3318    3320    1       1.09620000e-01   2.88905200e+05 
     3318    3321    1       1.09620000e-01   2.88905200e+05 
     3322    3323    1       1.40560000e-01   2.89591376e+05 
     3322    3343    1       1.39860000e-01   2.96436400e+05 
     3323    3324    1       1.40560000e-01   2.89591376e+05 
     3323    3345    1       1.48290000e-01   2.25408816e+05 
     3324    3325    1       1.08600000e-01   3.01825392e+05 
     3324    3326    1       1.39860000e-01   2.96436400e+05 
     3326    3327    1       1.51590000e-01   2.03342400e+05 
     3326    3342    1       1.39860000e-01   2.96436400e+05 
     3327    3328    1       1.09470000e-01   2.90754528e+05 
     3327    3329    1       1.55780000e-01   1.78983152e+05 
     3327    3337    1       1.54250000e-01   1.87443200e+05 
     3329    3330    1       1.09470000e-01   2.90754528e+05 
     3329    3331    1       1.54250000e-01   1.87443200e+05 
     3329    3342    1       1.51590000e-01   2.03342400e+05 
     3331    3332    1       1.09540000e-01   2.89892624e+05 
     3331    3333    1       1.54250000e-01   1.87443200e+05 
     3331    3339    1       1.54830000e-01   1.84179680e+05 
     3333    3334    1       1.09470000e-01   2.90754528e+05 
     3333    3335    1       1.55780000e-01   1.78983152e+05 
     3335    3336    1       1.09470000e-01   2.90754528e+05 
     3337    3335    1       1.54250000e-01   1.87443200e+05 
     3337    3338    1       1.09540000e-01   2.89892624e+05 
     3337    3339    1       1.54830000e-01   1.84179680e+05 
     3339    3340    1       1.09540000e-01   2.89892624e+05 
     3339    3341    1       1.09540000e-01   2.89892624e+05 
     3342    3343    1       1.39860000e-01   2.96436400e+05 
     3343    3344    1       1.08600000e-01   3.01825392e+05 
     3345    3346    1       1.40560000e-01   2.89591376e+05 
     3345    3380    1       1.40560000e-01   2.89591376e+05 
     3346    3347    1       1.39860000e-01   2.96436400e+05 
     3347    3348    1       1.08600000e-01   3.01825392e+05 
     3347    3349    1       1.39860000e-01   2.96436400e+05 
     3349    3350    1       1.51590000e-01   2.03342400e+05 
     3349    3379    1       1.39860000e-01   2.96436400e+05 
     3350    3351    1       1.09470000e-01   2.90754528e+05 
     3350    3352    1       1.55780000e-01   1.78983152e+05 
     3350    3374    1       1.54250000e-01   1.87443200e+05 
     3352    3353    1       1.09470000e-01   2.90754528e+05 
     3352    3354    1       1.54250000e-01   1.87443200e+05 
     3352    3379    1       1.51590000e-01   2.03342400e+05 
     3354    3355    1       1.09540000e-01   2.89892624e+05 
     3354    3356    1       1.54250000e-01   1.87443200e+05 
     3354    3376    1       1.54830000e-01   1.84179680e+05 
     3356    3357    1       1.09470000e-01   2.90754528e+05 
     3356    3358    1       1.51590000e-01   2.03342400e+05 
     3356    3372    1       1.55780000e-01   1.78983152e+05 
     3358    3359    1       1.39860000e-01   2.96436400e+05 
     3358    3367    1       1.39860000e-01   2.96436400e+05 
     3359    3360    1       1.39860000e-01   2.96436400e+05 
     3359    3372    1       1.51590000e-01   2.03342400e+05 
     3360    3361    1       1.51470000e-01   2.04103888e+05 
     3360    3365    1       1.39860000e-01   2.96436400e+05 
     3361    3362    1       1.09620000e-01   2.88905200e+05 
     3361    3363    1       1.09620000e-01   2.88905200e+05 
     3361    3364    1       1.09620000e-01   2.88905200e+05 
     3365    3059    1       1.51590000e-01   2.03342400e+05 
     3365    3366    1       1.39860000e-01   2.96436400e+05 
     3366    3057    1       1.51590000e-01   2.03342400e+05 
     3366    3367    1       1.39860000e-01   2.96436400e+05 
     3367    3368    1       1.51470000e-01   2.04103888e+05 
     3368    3369    1       1.09620000e-01   2.88905200e+05 
     3368    3370    1       1.09620000e-01   2.88905200e+05 
     3368    3371    1       1.09620000e-01   2.88905200e+05 
     3372    3373    1       1.09470000e-01   2.90754528e+05 
     3372    3374    1       1.54250000e-01   1.87443200e+05 
     3374    3375    1       1.09540000e-01   2.89892624e+05 
     3374    3376    1       1.54830000e-01   1.84179680e+05 
     3376    3377    1       1.09540000e-01   2.89892624e+05 
     3376    3378    1       1.09540000e-01   2.89892624e+05 
     3379    3380    1       1.39860000e-01   2.96436400e+05 
     3380    3381    1       1.08600000e-01   3.01825392e+05 
     3382    3383    1       1.09620000e-01   2.88905200e+05 
     3382    3384    1       1.09620000e-01   2.88905200e+05 
     3382    3385    1       1.09620000e-01   2.88905200e+05 
     3382    3386    1       1.53720000e-01   1.90489152e+05 
     3386    3387    1       1.53720000e-01   1.90489152e+05 
     3386    3391    1       1.51510000e-01   2.03844480e+05 
     3386    3415    1       1.51510000e-01   2.03844480e+05 
     3387    3388    1       1.09620000e-01   2.88905200e+05 
     3387    3389    1       1.09620000e-01   2.88905200e+05 
     3387    3390    1       1.09620000e-01   2.88905200e+05 
     3391    3392    1       1.40560000e-01   2.89591376e+05 
     3391    3412    1       1.39860000e-01   2.96436400e+05 
     3392    3393    1       1.40560000e-01   2.89591376e+05 
     3392    3414    1       1.48290000e-01   2.25408816e+05 
     3393    3394    1       1.08600000e-01   3.01825392e+05 
     3393    3395    1       1.39860000e-01   2.96436400e+05 
     3395    3396    1       1.51590000e-01   2.03342400e+05 
     3395    3411    1       1.39860000e-01   2.96436400e+05 
     3396    3397    1       1.09470000e-01   2.90754528e+05 
     3396    3398    1       1.55780000e-01   1.78983152e+05 
     3396    3406    1       1.54250000e-01   1.87443200e+05 
     3398    3399    1       1.09470000e-01   2.90754528e+05 
     3398    3400    1       1.54250000e-01   1.87443200e+05 
     3398    3411    1       1.51590000e-01   2.03342400e+05 
     3400    3401    1       1.09540000e-01   2.89892624e+05 
     3400    3402    1       1.54250000e-01   1.87443200e+05 
     3400    3408    1       1.54830000e-01   1.84179680e+05 
     3402    3403    1       1.09470000e-01   2.90754528e+05 
     3402    3404    1       1.55780000e-01   1.78983152e+05 
     3404    3405    1       1.09470000e-01   2.90754528e+05 
     3406    3404    1       1.54250000e-01   1.87443200e+05 
     3406    3407    1       1.09540000e-01   2.89892624e+05 
     3406    3408    1       1.54830000e-01   1.84179680e+05 
     3408    3409    1       1.09540000e-01   2.89892624e+05 
     3408    3410    1       1.09540000e-01   2.89892624e+05 
     3411    3412    1       1.39860000e-01   2.96436400e+05 
     3412    3413    1       1.08600000e-01   3.01825392e+05 
     3414    3415    1       1.40560000e-01   2.89591376e+05 
     3414    3449    1       1.40560000e-01   2.89591376e+05 
     3415    3416    1       1.39860000e-01   2.96436400e+05 
     3416    3417    1       1.08600000e-01   3.01825392e+05 
     3416    3418    1       1.39860000e-01   2.96436400e+05 
     3418    3419    1       1.51590000e-01   2.03342400e+05 
     3418    3448    1       1.39860000e-01   2.96436400e+05 
     3419    3420    1       1.09470000e-01   2.90754528e+05 
     3419    3421    1       1.55780000e-01   1.78983152e+05 
     3419    3443    1       1.54250000e-01   1.87443200e+05 
     3421    3422    1       1.09470000e-01   2.90754528e+05 
     3421    3423    1       1.54250000e-01   1.87443200e+05 
     3421    3448    1       1.51590000e-01   2.03342400e+05 
     3423    3424    1       1.09540000e-01   2.89892624e+05 
     3423    3425    1       1.54250000e-01   1.87443200e+05 
     3423    3445    1       1.54830000e-01   1.84179680e+05 
     3425    3426    1       1.09470000e-01   2.90754528e+05 
     3425    3427    1       1.51590000e-01   2.03342400e+05 
     3425    3441    1       1.55780000e-01   1.78983152e+05 
     3427    3428    1       1.39860000e-01   2.96436400e+05 
     3427    3436    1       1.39860000e-01   2.96436400e+05 
     3428    3429    1       1.39860000e-01   2.96436400e+05 
     3428    3441    1       1.51590000e-01   2.03342400e+05 
     3429    3430    1       1.51470000e-01   2.04103888e+05 
     3429    3434    1       1.39860000e-01   2.96436400e+05 
     3430    3431    1       1.09620000e-01   2.88905200e+05 
     3430    3432    1       1.09620000e-01   2.88905200e+05 
     3430    3433    1       1.09620000e-01   2.88905200e+05 
     3434    3435    1       1.39860000e-01   2.96436400e+05 
     3434    3611    1       1.51590000e-01   2.03342400e+05 
     3435    3436    1       1.39860000e-01   2.96436400e+05 
     3435    3609    1       1.51590000e-01   2.03342400e+05 
     3436    3437    1       1.51470000e-01   2.04103888e+05 
     3437    3438    1       1.09620000e-01   2.88905200e+05 
     3437    3439    1       1.09620000e-01   2.88905200e+05 
     3437    3440    1       1.09620000e-01   2.88905200e+05 
     3441    3442    1       1.09470000e-01   2.90754528e+05 
     3441    3443    1       1.54250000e-01   1.87443200e+05 
     3443    3444    1       1.09540000e-01   2.89892624e+05 
     3443    3445    1       1.54830000e-01   1.84179680e+05 
     3445    3446    1       1.09540000e-01   2.89892624e+05 
     3445    3447    1       1.09540000e-01   2.89892624e+05 
     3448    3449    1       1.39860000e-01   2.96436400e+05 
     3449    3450    1       1.08600000e-01   3.01825392e+05 
     3451    3452    1       1.09620000e-01   2.88905200e+05 
     3451    3453    1       1.09620000e-01   2.88905200e+05 
     3451    3454    1       1.09620000e-01   2.88905200e+05 
     3451    3455    1       1.53720000e-01   1.90489152e+05 
     3455    3456    1       1.53720000e-01   1.90489152e+05 
     3455    3460    1       1.51510000e-01   2.03844480e+05 
     3455    3484    1       1.51510000e-01   2.03844480e+05 
     3456    3457    1       1.09620000e-01   2.88905200e+05 
     3456    3458    1       1.09620000e-01   2.88905200e+05 
     3456    3459    1       1.09620000e-01   2.88905200e+05 
     3460    3461    1       1.40560000e-01   2.89591376e+05 
     3460    3481    1       1.39860000e-01   2.96436400e+05 
     3461    3462    1       1.40560000e-01   2.89591376e+05 
     3461    3483    1       1.48290000e-01   2.25408816e+05 
     3462    3463    1       1.08600000e-01   3.01825392e+05 
     3462    3464    1       1.39860000e-01   2.96436400e+05 
     3464    3465    1       1.51590000e-01   2.03342400e+05 
     3464    3480    1       1.39860000e-01   2.96436400e+05 
     3465    3466    1       1.09470000e-01   2.90754528e+05 
     3465    3467    1       1.55780000e-01   1.78983152e+05 
     3465    3475    1       1.54250000e-01   1.87443200e+05 
     3467    3468    1       1.09470000e-01   2.90754528e+05 
     3467    3469    1       1.54250000e-01   1.87443200e+05 
     3467    3480    1       1.51590000e-01   2.03342400e+05 
     3469    3470    1       1.09540000e-01   2.89892624e+05 
     3469    3471    1       1.54250000e-01   1.87443200e+05 
     3469    3477    1       1.54830000e-01   1.84179680e+05 
     3471    3472    1       1.09470000e-01   2.90754528e+05 
     3471    3473    1       1.55780000e-01   1.78983152e+05 
     3473    3474    1       1.09470000e-01   2.90754528e+05 
     3475    3473    1       1.54250000e-01   1.87443200e+05 
     3475    3476    1       1.09540000e-01   2.89892624e+05 
     3475    3477    1       1.54830000e-01   1.84179680e+05 
     3477    3478    1       1.09540000e-01   2.89892624e+05 
     3477    3479    1       1.09540000e-01   2.89892624e+05 
     3480    3481    1       1.39860000e-01   2.96436400e+05 
     3481    3482    1       1.08600000e-01   3.01825392e+05 
     3483    3484    1       1.40560000e-01   2.89591376e+05 
     3483    3518    1       1.40560000e-01   2.89591376e+05 
     3484    3485    1       1.39860000e-01   2.96436400e+05 
     3485    3486    1       1.08600000e-01   3.01825392e+05 
     3485    3487    1       1.39860000e-01   2.96436400e+05 
     3487    3488    1       1.51590000e-01   2.03342400e+05 
     3487    3517    1       1.39860000e-01   2.96436400e+05 
     3488    3489    1       1.09470000e-01   2.90754528e+05 
     3488    3490    1       1.55780000e-01   1.78983152e+05 
     3488    3512    1       1.54250000e-01   1.87443200e+05 
     3490    3491    1       1.09470000e-01   2.90754528e+05 
     3490    3492    1       1.54250000e-01   1.87443200e+05 
     3490    3517    1       1.51590000e-01   2.03342400e+05 
     3492    3493    1       1.09540000e-01   2.89892624e+05 
     3492    3494    1       1.54250000e-01   1.87443200e+05 
     3492    3514    1       1.54830000e-01   1.84179680e+05 
     3494    3495    1       1.09470000e-01   2.90754528e+05 
     3494    3496    1       1.51590000e-01   2.03342400e+05 
     3494    3510    1       1.55780000e-01   1.78983152e+05 
     3496    3497    1       1.39860000e-01   2.96436400e+05 
     3496    3505    1       1.39860000e-01   2.96436400e+05 
     3497    3498    1       1.39860000e-01   2.96436400e+05 
     3497    3510    1       1.51590000e-01   2.03342400e+05 
     3498    3499    1       1.51470000e-01   2.04103888e+05 
     3498    3503    1       1.39860000e-01   2.96436400e+05 
     3499    3500    1       1.09620000e-01   2.88905200e+05 
     3499    3501    1       1.09620000e-01   2.88905200e+05 
     3499    3502    1       1.09620000e-01   2.88905200e+05 
     3503    1401    1       1.51590000e-01   2.03342400e+05 
     3503    3504    1       1.39860000e-01   2.96436400e+05 
     3504    1403    1       1.51590000e-01   2.03342400e+05 
     3504    3505    1       1.39860000e-01   2.96436400e+05 
     3505    3506    1       1.51470000e-01   2.04103888e+05 
     3506    3507    1       1.09620000e-01   2.88905200e+05 
     3506    3508    1       1.09620000e-01   2.88905200e+05 
     3506    3509    1       1.09620000e-01   2.88905200e+05 
     3510    3511    1       1.09470000e-01   2.90754528e+05 
     3510    3512    1       1.54250000e-01   1.87443200e+05 
     3512    3513    1       1.09540000e-01   2.89892624e+05 
     3512    3514    1       1.54830000e-01   1.84179680e+05 
     3514    3515    1       1.09540000e-01   2.89892624e+05 
     3514    3516    1       1.09540000e-01   2.89892624e+05 
     3517    3518    1       1.39860000e-01   2.96436400e+05 
     3518    3519    1       1.08600000e-01   3.01825392e+05 
     3520    3521    1       1.09620000e-01   2.88905200e+05 
     3520    3522    1       1.09620000e-01   2.88905200e+05 
     3520    3523    1       1.09620000e-01   2.88905200e+05 
     3520    3524    1       1.53720000e-01   1.90489152e+05 
     3524    3525    1       1.53720000e-01   1.90489152e+05 
     3524    3529    1       1.51510000e-01   2.03844480e+05 
     3524    3553    1       1.51510000e-01   2.03844480e+05 
     3525    3526    1       1.09620000e-01   2.88905200e+05 
     3525    3527    1       1.09620000e-01   2.88905200e+05 
     3525    3528    1       1.09620000e-01   2.88905200e+05 
     3529    3530    1       1.40560000e-01   2.89591376e+05 
     3529    3550    1       1.39860000e-01   2.96436400e+05 
     3530    3531    1       1.40560000e-01   2.89591376e+05 
     3530    3552    1       1.48290000e-01   2.25408816e+05 
     3531    3532    1       1.08600000e-01   3.01825392e+05 
     3531    3533    1       1.39860000e-01   2.96436400e+05 
     3533    3534    1       1.51590000e-01   2.03342400e+05 
     3533    3549    1       1.39860000e-01   2.96436400e+05 
     3534    3535    1       1.09470000e-01   2.90754528e+05 
     3534    3536    1       1.55780000e-01   1.78983152e+05 
     3534    3544    1       1.54250000e-01   1.87443200e+05 
     3536    3537    1       1.09470000e-01   2.90754528e+05 
     3536    3538    1       1.54250000e-01   1.87443200e+05 
     3536    3549    1       1.51590000e-01   2.03342400e+05 
     3538    3539    1       1.09540000e-01   2.89892624e+05 
     3538    3540    1       1.54250000e-01   1.87443200e+05 
     3538    3546    1       1.54830000e-01   1.84179680e+05 
     3540    3541    1       1.09470000e-01   2.90754528e+05 
     3540    3542    1       1.55780000e-01   1.78983152e+05 
     3542    3543    1       1.09470000e-01   2.90754528e+05 
     3544    3542    1       1.54250000e-01   1.87443200e+05 
     3544    3545    1       1.09540000e-01   2.89892624e+05 
     3544    3546    1       1.54830000e-01   1.84179680e+05 
     3546    3547    1       1.09540000e-01   2.89892624e+05 
     3546    3548    1       1.09540000e-01   2.89892624e+05 
     3549    3550    1       1.39860000e-01   2.96436400e+05 
     3550    3551    1       1.08600000e-01   3.01825392e+05 
     3552    3553    1       1.40560000e-01   2.89591376e+05 
     3552    3587    1       1.40560000e-01   2.89591376e+05 
     3553    3554    1       1.39860000e-01   2.96436400e+05 
     3554    3555    1       1.08600000e-01   3.01825392e+05 
     3554    3556    1       1.39860000e-01   2.96436400e+05 
     3556    3557    1       1.51590000e-01   2.03342400e+05 
     3556    3586    1       1.39860000e-01   2.96436400e+05 
     3557    3558    1       1.09470000e-01   2.90754528e+05 
     3557    3559    1       1.55780000e-01   1.78983152e+05 
     3557    3581    1       1.54250000e-01   1.87443200e+05 
     3559    3560    1       1.09470000e-01   2.90754528e+05 
     3559    3561    1       1.54250000e-01   1.87443200e+05 
     3559    3586    1       1.51590000e-01   2.03342400e+05 
     3561    3562    1       1.09540000e-01   2.89892624e+05 
     3561    3563    1       1.54250000e-01   1.87443200e+05 
     3561    3583    1       1.54830000e-01   1.84179680e+05 
     3563    3564    1       1.09470000e-01   2.90754528e+05 
     3563    3565    1       1.51590000e-01   2.03342400e+05 
     3563    3579    1       1.55780000e-01   1.78983152e+05 
     3565    3566    1       1.39860000e-01   2.96436400e+05 
     3565    3574    1       1.39860000e-01   2.96436400e+05 
     3566    3567    1       1.39860000e-01   2.96436400e+05 
     3566    3579    1       1.51590000e-01   2.03342400e+05 
     3567    3568    1       1.51470000e-01   2.04103888e+05 
     3567    3572    1       1.39860000e-01   2.96436400e+05 
     3568    3569    1       1.09620000e-01   2.88905200e+05 
     3568    3570    1       1.09620000e-01   2.88905200e+05 
     3568    3571    1       1.09620000e-01   2.88905200e+05 
     3572    3573    1       1.39860000e-01   2.96436400e+05 
     3572    6578    1       1.51590000e-01   2.03342400e+05 
     3573    3574    1       1.39860000e-01   2.96436400e+05 
     3573    6576    1       1.51590000e-01   2.03342400e+05 
     3574    3575    1       1.51470000e-01   2.04103888e+05 
     3575    3576    1       1.09620000e-01   2.88905200e+05 
     3575    3577    1       1.09620000e-01   2.88905200e+05 
     3575    3578    1       1.09620000e-01   2.88905200e+05 
     3579    3580    1       1.09470000e-01   2.90754528e+05 
     3579    3581    1       1.54250000e-01   1.87443200e+05 
     3581    3582    1       1.09540000e-01   2.89892624e+05 
     3581    3583    1       1.54830000e-01   1.84179680e+05 
     3583    3584    1       1.09540000e-01   2.89892624e+05 
     3583    3585    1       1.09540000e-01   2.89892624e+05 
     3586    3587    1       1.39860000e-01   2.96436400e+05 
     3587    3588    1       1.08600000e-01   3.01825392e+05 
     3589    3590    1       1.09620000e-01   2.88905200e+05 
     3589    3591    1       1.09620000e-01   2.88905200e+05 
     3589    3592    1       1.09620000e-01   2.88905200e+05 
     3589    3593    1       1.53720000e-01   1.90489152e+05 
     3593    3594    1       1.53720000e-01   1.90489152e+05 
     3593    3598    1       1.51510000e-01   2.03844480e+05 
     3593    3622    1       1.51510000e-01   2.03844480e+05 
     3594    3595    1       1.09620000e-01   2.88905200e+05 
     3594    3596    1       1.09620000e-01   2.88905200e+05 
     3594    3597    1       1.09620000e-01   2.88905200e+05 
     3598    3599    1       1.40560000e-01   2.89591376e+05 
     3598    3619    1       1.39860000e-01   2.96436400e+05 
     3599    3600    1       1.40560000e-01   2.89591376e+05 
     3599    3621    1       1.48290000e-01   2.25408816e+05 
     3600    3601    1       1.08600000e-01   3.01825392e+05 
     3600    3602    1       1.39860000e-01   2.96436400e+05 
     3602    3603    1       1.51590000e-01   2.03342400e+05 
     3602    3618    1       1.39860000e-01   2.96436400e+05 
     3603    3604    1       1.09470000e-01   2.90754528e+05 
     3603    3605    1       1.55780000e-01   1.78983152e+05 
     3603    3613    1       1.54250000e-01   1.87443200e+05 
     3605    3606    1       1.09470000e-01   2.90754528e+05 
     3605    3607    1       1.54250000e-01   1.87443200e+05 
     3605    3618    1       1.51590000e-01   2.03342400e+05 
     3607    3608    1       1.09540000e-01   2.89892624e+05 
     3607    3609    1       1.54250000e-01   1.87443200e+05 
     3607    3615    1       1.54830000e-01   1.84179680e+05 
     3609    3610    1       1.09470000e-01   2.90754528e+05 
     3609    3611    1       1.55780000e-01   1.78983152e+05 
     3611    3612    1       1.09470000e-01   2.90754528e+05 
     3613    3611    1       1.54250000e-01   1.87443200e+05 
     3613    3614    1       1.09540000e-01   2.89892624e+05 
     3613    3615    1       1.54830000e-01   1.84179680e+05 
     3615    3616    1       1.09540000e-01   2.89892624e+05 
     3615    3617    1       1.09540000e-01   2.89892624e+05 
     3618    3619    1       1.39860000e-01   2.96436400e+05 
     3619    3620    1       1.08600000e-01   3.01825392e+05 
     3621    3622    1       1.40560000e-01   2.89591376e+05 
     3621    3656    1       1.40560000e-01   2.89591376e+05 
     3622    3623    1       1.39860000e-01   2.96436400e+05 
     3623    3624    1       1.08600000e-01   3.01825392e+05 
     3623    3625    1       1.39860000e-01   2.96436400e+05 
     3625    3626    1       1.51590000e-01   2.03342400e+05 
     3625    3655    1       1.39860000e-01   2.96436400e+05 
     3626    3627    1       1.09470000e-01   2.90754528e+05 
     3626    3628    1       1.55780000e-01   1.78983152e+05 
     3626    3650    1       1.54250000e-01   1.87443200e+05 
     3628    3629    1       1.09470000e-01   2.90754528e+05 
     3628    3630    1       1.54250000e-01   1.87443200e+05 
     3628    3655    1       1.51590000e-01   2.03342400e+05 
     3630    3631    1       1.09540000e-01   2.89892624e+05 
     3630    3632    1       1.54250000e-01   1.87443200e+05 
     3630    3652    1       1.54830000e-01   1.84179680e+05 
     3632    3633    1       1.09470000e-01   2.90754528e+05 
     3632    3634    1       1.51590000e-01   2.03342400e+05 
     3632    3648    1       1.55780000e-01   1.78983152e+05 
     3634    3635    1       1.39860000e-01   2.96436400e+05 
     3634    3643    1       1.39860000e-01   2.96436400e+05 
     3635    3636    1       1.39860000e-01   2.96436400e+05 
     3635    3648    1       1.51590000e-01   2.03342400e+05 
     3636    3637    1       1.51470000e-01   2.04103888e+05 
     3636    3641    1       1.39860000e-01   2.96436400e+05 
     3637    3638    1       1.09620000e-01   2.88905200e+05 
     3637    3639    1       1.09620000e-01   2.88905200e+05 
     3637    3640    1       1.09620000e-01   2.88905200e+05 
     3641    2160    1       1.51590000e-01   2.03342400e+05 
     3641    3642    1       1.39860000e-01   2.96436400e+05 
     3642    2162    1       1.51590000e-01   2.03342400e+05 
     3642    3643    1       1.39860000e-01   2.96436400e+05 
     3643    3644    1       1.51470000e-01   2.04103888e+05 
     3644    3645    1       1.09620000e-01   2.88905200e+05 
     3644    3646    1       1.09620000e-01   2.88905200e+05 
     3644    3647    1       1.09620000e-01   2.88905200e+05 
     3648    3649    1       1.09470000e-01   2.90754528e+05 
     3648    3650    1       1.54250000e-01   1.87443200e+05 
     3650    3651    1       1.09540000e-01   2.89892624e+05 
     3650    3652    1       1.54830000e-01   1.84179680e+05 
     3652    3653    1       1.09540000e-01   2.89892624e+05 
     3652    3654    1       1.09540000e-01   2.89892624e+05 
     3655    3656    1       1.39860000e-01   2.96436400e+05 
     3656    3657    1       1.08600000e-01   3.01825392e+05 
     3658    3659    1       1.09620000e-01   2.88905200e+05 
     3658    3660    1       1.09620000e-01   2.88905200e+05 
     3658    3661    1       1.09620000e-01   2.88905200e+05 
     3658    3662    1       1.53720000e-01   1.90489152e+05 
     3662    3663    1       1.53720000e-01   1.90489152e+05 
     3662    3667    1       1.51510000e-01   2.03844480e+05 
     3662    3691    1       1.51510000e-01   2.03844480e+05 
     3663    3664    1       1.09620000e-01   2.88905200e+05 
     3663    3665    1       1.09620000e-01   2.88905200e+05 
     3663    3666    1       1.09620000e-01   2.88905200e+05 
     3667    3668    1       1.40560000e-01   2.89591376e+05 
     3667    3688    1       1.39860000e-01   2.96436400e+05 
     3668    3669    1       1.40560000e-01   2.89591376e+05 
     3668    3690    1       1.48290000e-01   2.25408816e+05 
     3669    3670    1       1.08600000e-01   3.01825392e+05 
     3669    3671    1       1.39860000e-01   2.96436400e+05 
     3671    3672    1       1.51590000e-01   2.03342400e+05 
     3671    3687    1       1.39860000e-01   2.96436400e+05 
     3672    3673    1       1.09470000e-01   2.90754528e+05 
     3672    3674    1       1.55780000e-01   1.78983152e+05 
     3672    3682    1       1.54250000e-01   1.87443200e+05 
     3674    3675    1       1.09470000e-01   2.90754528e+05 
     3674    3676    1       1.54250000e-01   1.87443200e+05 
     3674    3687    1       1.51590000e-01   2.03342400e+05 
     3676    3677    1       1.09540000e-01   2.89892624e+05 
     3676    3678    1       1.54250000e-01   1.87443200e+05 
     3676    3684    1       1.54830000e-01   1.84179680e+05 
     3678    3679    1       1.09470000e-01   2.90754528e+05 
     3678    3680    1       1.55780000e-01   1.78983152e+05 
     3680    3681    1       1.09470000e-01   2.90754528e+05 
     3682    3680    1       1.54250000e-01   1.87443200e+05 
     3682    3683    1       1.09540000e-01   2.89892624e+05 
     3682    3684    1       1.54830000e-01   1.84179680e+05 
     3684    3685    1       1.09540000e-01   2.89892624e+05 
     3684    3686    1       1.09540000e-01   2.89892624e+05 
     3687    3688    1       1.39860000e-01   2.96436400e+05 
     3688    3689    1       1.08600000e-01   3.01825392e+05 
     3690    3691    1       1.40560000e-01   2.89591376e+05 
     3690    3725    1       1.40560000e-01   2.89591376e+05 
     3691    3692    1       1.39860000e-01   2.96436400e+05 
     3692    3693    1       1.08600000e-01   3.01825392e+05 
     3692    3694    1       1.39860000e-01   2.96436400e+05 
     3694    3695    1       1.51590000e-01   2.03342400e+05 
     3694    3724    1       1.39860000e-01   2.96436400e+05 
     3695    3696    1       1.09470000e-01   2.90754528e+05 
     3695    3697    1       1.55780000e-01   1.78983152e+05 
     3695    3719    1       1.54250000e-01   1.87443200e+05 
     3697    3698    1       1.09470000e-01   2.90754528e+05 
     3697    3699    1       1.54250000e-01   1.87443200e+05 
     3697    3724    1       1.51590000e-01   2.03342400e+05 
     3699    3700    1       1.09540000e-01   2.89892624e+05 
     3699    3701    1       1.54250000e-01   1.87443200e+05 
     3699    3721    1       1.54830000e-01   1.84179680e+05 
     3701    3702    1       1.09470000e-01   2.90754528e+05 
     3701    3703    1       1.51590000e-01   2.03342400e+05 
     3701    3717    1       1.55780000e-01   1.78983152e+05 
     3703    3704    1       1.39860000e-01   2.96436400e+05 
     3703    3712    1       1.39860000e-01   2.96436400e+05 
     3704    3705    1       1.39860000e-01   2.96436400e+05 
     3704    3717    1       1.51590000e-01   2.03342400e+05 
     3705    3706    1       1.51470000e-01   2.04103888e+05 
     3705    3710    1       1.39860000e-01   2.96436400e+05 
     3706    3707    1       1.09620000e-01   2.88905200e+05 
     3706    3708    1       1.09620000e-01   2.88905200e+05 
     3706    3709    1       1.09620000e-01   2.88905200e+05 
     3710    3711    1       1.39860000e-01   2.96436400e+05 
     3710    5474    1       1.51590000e-01   2.03342400e+05 
     3711    3712    1       1.39860000e-01   2.96436400e+05 
     3711    5472    1       1.51590000e-01   2.03342400e+05 
     3712    3713    1       1.51470000e-01   2.04103888e+05 
     3713    3714    1       1.09620000e-01   2.88905200e+05 
     3713    3715    1       1.09620000e-01   2.88905200e+05 
     3713    3716    1       1.09620000e-01   2.88905200e+05 
     3717    3718    1       1.09470000e-01   2.90754528e+05 
     3717    3719    1       1.54250000e-01   1.87443200e+05 
     3719    3720    1       1.09540000e-01   2.89892624e+05 
     3719    3721    1       1.54830000e-01   1.84179680e+05 
     3721    3722    1       1.09540000e-01   2.89892624e+05 
     3721    3723    1       1.09540000e-01   2.89892624e+05 
     3724    3725    1       1.39860000e-01   2.96436400e+05 
     3725    3726    1       1.08600000e-01   3.01825392e+05 
     3727    3728    1       1.09620000e-01   2.88905200e+05 
     3727    3729    1       1.09620000e-01   2.88905200e+05 
     3727    3730    1       1.09620000e-01   2.88905200e+05 
     3727    3731    1       1.53720000e-01   1.90489152e+05 
     3731    3732    1       1.53720000e-01   1.90489152e+05 
     3731    3736    1       1.51510000e-01   2.03844480e+05 
     3731    3760    1       1.51510000e-01   2.03844480e+05 
     3732    3733    1       1.09620000e-01   2.88905200e+05 
     3732    3734    1       1.09620000e-01   2.88905200e+05 
     3732    3735    1       1.09620000e-01   2.88905200e+05 
     3736    3737    1       1.40560000e-01   2.89591376e+05 
     3736    3757    1       1.39860000e-01   2.96436400e+05 
     3737    3738    1       1.40560000e-01   2.89591376e+05 
     3737    3759    1       1.48290000e-01   2.25408816e+05 
     3738    3739    1       1.08600000e-01   3.01825392e+05 
     3738    3740    1       1.39860000e-01   2.96436400e+05 
     3740    3741    1       1.51590000e-01   2.03342400e+05 
     3740    3756    1       1.39860000e-01   2.96436400e+05 
     3741    3742    1       1.09470000e-01   2.90754528e+05 
     3741    3743    1       1.55780000e-01   1.78983152e+05 
     3741    3751    1       1.54250000e-01   1.87443200e+05 
     3743    3744    1       1.09470000e-01   2.90754528e+05 
     3743    3745    1       1.54250000e-01   1.87443200e+05 
     3743    3756    1       1.51590000e-01   2.03342400e+05 
     3745    3746    1       1.09540000e-01   2.89892624e+05 
     3745    3747    1       1.54250000e-01   1.87443200e+05 
     3745    3753    1       1.54830000e-01   1.84179680e+05 
     3747    3748    1       1.09470000e-01   2.90754528e+05 
     3747    3749    1       1.55780000e-01   1.78983152e+05 
     3749    3750    1       1.09470000e-01   2.90754528e+05 
     3751    3749    1       1.54250000e-01   1.87443200e+05 
     3751    3752    1       1.09540000e-01   2.89892624e+05 
     3751    3753    1       1.54830000e-01   1.84179680e+05 
     3753    3754    1       1.09540000e-01   2.89892624e+05 
     3753    3755    1       1.09540000e-01   2.89892624e+05 
     3756    3757    1       1.39860000e-01   2.96436400e+05 
     3757    3758    1       1.08600000e-01   3.01825392e+05 
     3759    3760    1       1.40560000e-01   2.89591376e+05 
     3759    3794    1       1.40560000e-01   2.89591376e+05 
     3760    3761    1       1.39860000e-01   2.96436400e+05 
     3761    3762    1       1.08600000e-01   3.01825392e+05 
     3761    3763    1       1.39860000e-01   2.96436400e+05 
     3763    3764    1       1.51590000e-01   2.03342400e+05 
     3763    3793    1       1.39860000e-01   2.96436400e+05 
     3764    3765    1       1.09470000e-01   2.90754528e+05 
     3764    3766    1       1.55780000e-01   1.78983152e+05 
     3764    3788    1       1.54250000e-01   1.87443200e+05 
     3766    3767    1       1.09470000e-01   2.90754528e+05 
     3766    3768    1       1.54250000e-01   1.87443200e+05 
     3766    3793    1       1.51590000e-01   2.03342400e+05 
     3768    3769    1       1.09540000e-01   2.89892624e+05 
     3768    3770    1       1.54250000e-01   1.87443200e+05 
     3768    3790    1       1.54830000e-01   1.84179680e+05 
     3770    3771    1       1.09470000e-01   2.90754528e+05 
     3770    3772    1       1.51590000e-01   2.03342400e+05 
     3770    3786    1       1.55780000e-01   1.78983152e+05 
     3772    3773    1       1.39860000e-01   2.96436400e+05 
     3772    3781    1       1.39860000e-01   2.96436400e+05 
     3773    3774    1       1.39860000e-01   2.96436400e+05 
     3773    3786    1       1.51590000e-01   2.03342400e+05 
     3774    3775    1       1.51470000e-01   2.04103888e+05 
     3774    3779    1       1.39860000e-01   2.96436400e+05 
     3775    3776    1       1.09620000e-01   2.88905200e+05 
     3775    3777    1       1.09620000e-01   2.88905200e+05 
     3775    3778    1       1.09620000e-01   2.88905200e+05 
     3779    3780    1       1.39860000e-01   2.96436400e+05 
     3779    5060    1       1.51590000e-01   2.03342400e+05 
     3780    3781    1       1.39860000e-01   2.96436400e+05 
     3780    5058    1       1.51590000e-01   2.03342400e+05 
     3781    3782    1       1.51470000e-01   2.04103888e+05 
     3782    3783    1       1.09620000e-01   2.88905200e+05 
     3782    3784    1       1.09620000e-01   2.88905200e+05 
     3782    3785    1       1.09620000e-01   2.88905200e+05 
     3786    3787    1       1.09470000e-01   2.90754528e+05 
     3786    3788    1       1.54250000e-01   1.87443200e+05 
     3788    3789    1       1.09540000e-01   2.89892624e+05 
     3788    3790    1       1.54830000e-01   1.84179680e+05 
     3790    3791    1       1.09540000e-01   2.89892624e+05 
     3790    3792    1       1.09540000e-01   2.89892624e+05 
     3793    3794    1       1.39860000e-01   2.96436400e+05 
     3794    3795    1       1.08600000e-01   3.01825392e+05 
     3796    3797    1       1.09620000e-01   2.88905200e+05 
     3796    3798    1       1.09620000e-01   2.88905200e+05 
     3796    3799    1       1.09620000e-01   2.88905200e+05 
     3796    3800    1       1.53720000e-01   1.90489152e+05 
     3800    3801    1       1.53720000e-01   1.90489152e+05 
     3800    3805    1       1.51510000e-01   2.03844480e+05 
     3800    3829    1       1.51510000e-01   2.03844480e+05 
     3801    3802    1       1.09620000e-01   2.88905200e+05 
     3801    3803    1       1.09620000e-01   2.88905200e+05 
     3801    3804    1       1.09620000e-01   2.88905200e+05 
     3805    3806    1       1.40560000e-01   2.89591376e+05 
     3805    3826    1       1.39860000e-01   2.96436400e+05 
     3806    3807    1       1.40560000e-01   2.89591376e+05 
     3806    3828    1       1.48290000e-01   2.25408816e+05 
     3807    3808    1       1.08600000e-01   3.01825392e+05 
     3807    3809    1       1.39860000e-01   2.96436400e+05 
     3809    3810    1       1.51590000e-01   2.03342400e+05 
     3809    3825    1       1.39860000e-01   2.96436400e+05 
     3810    3811    1       1.09470000e-01   2.90754528e+05 
     3810    3812    1       1.55780000e-01   1.78983152e+05 
     3810    3820    1       1.54250000e-01   1.87443200e+05 
     3812    3813    1       1.09470000e-01   2.90754528e+05 
     3812    3814    1       1.54250000e-01   1.87443200e+05 
     3812    3825    1       1.51590000e-01   2.03342400e+05 
     3814    3815    1       1.09540000e-01   2.89892624e+05 
     3814    3816    1       1.54250000e-01   1.87443200e+05 
     3814    3822    1       1.54830000e-01   1.84179680e+05 
     3816    3817    1       1.09470000e-01   2.90754528e+05 
     3816    3818    1       1.55780000e-01   1.78983152e+05 
     3818    3819    1       1.09470000e-01   2.90754528e+05 
     3820    3818    1       1.54250000e-01   1.87443200e+05 
     3820    3821    1       1.09540000e-01   2.89892624e+05 
     3820    3822    1       1.54830000e-01   1.84179680e+05 
     3822    3823    1       1.09540000e-01   2.89892624e+05 
     3822    3824    1       1.09540000e-01   2.89892624e+05 
     3825    3826    1       1.39860000e-01   2.96436400e+05 
     3826    3827    1       1.08600000e-01   3.01825392e+05 
     3828    3829    1       1.40560000e-01   2.89591376e+05 
     3828    3863    1       1.40560000e-01   2.89591376e+05 
     3829    3830    1       1.39860000e-01   2.96436400e+05 
     3830    3831    1       1.08600000e-01   3.01825392e+05 
     3830    3832    1       1.39860000e-01   2.96436400e+05 
     3832    3833    1       1.51590000e-01   2.03342400e+05 
     3832    3862    1       1.39860000e-01   2.96436400e+05 
     3833    3834    1       1.09470000e-01   2.90754528e+05 
     3833    3835    1       1.55780000e-01   1.78983152e+05 
     3833    3857    1       1.54250000e-01   1.87443200e+05 
     3835    3836    1       1.09470000e-01   2.90754528e+05 
     3835    3837    1       1.54250000e-01   1.87443200e+05 
     3835    3862    1       1.51590000e-01   2.03342400e+05 
     3837    3838    1       1.09540000e-01   2.89892624e+05 
     3837    3839    1       1.54250000e-01   1.87443200e+05 
     3837    3859    1       1.54830000e-01   1.84179680e+05 
     3839    3840    1       1.09470000e-01   2.90754528e+05 
     3839    3841    1       1.51590000e-01   2.03342400e+05 
     3839    3855    1       1.55780000e-01   1.78983152e+05 
     3841    3842    1       1.39860000e-01   2.96436400e+05 
     3841    3850    1       1.39860000e-01   2.96436400e+05 
     3842    3843    1       1.39860000e-01   2.96436400e+05 
     3842    3855    1       1.51590000e-01   2.03342400e+05 
     3843    3844    1       1.51470000e-01   2.04103888e+05 
     3843    3848    1       1.39860000e-01   2.96436400e+05 
     3844    3845    1       1.09620000e-01   2.88905200e+05 
     3844    3846    1       1.09620000e-01   2.88905200e+05 
     3844    3847    1       1.09620000e-01   2.88905200e+05 
     3848    3849    1       1.39860000e-01   2.96436400e+05 
     3848    6302    1       1.51590000e-01   2.03342400e+05 
     3849    3850    1       1.39860000e-01   2.96436400e+05 
     3849    6300    1       1.51590000e-01   2.03342400e+05 
     3850    3851    1       1.51470000e-01   2.04103888e+05 
     3851    3852    1       1.09620000e-01   2.88905200e+05 
     3851    3853    1       1.09620000e-01   2.88905200e+05 
     3851    3854    1       1.09620000e-01   2.88905200e+05 
     3855    3856    1       1.09470000e-01   2.90754528e+05 
     3855    3857    1       1.54250000e-01   1.87443200e+05 
     3857    3858    1       1.09540000e-01   2.89892624e+05 
     3857    3859    1       1.54830000e-01   1.84179680e+05 
     3859    3860    1       1.09540000e-01   2.89892624e+05 
     3859    3861    1       1.09540000e-01   2.89892624e+05 
     3862    3863    1       1.39860000e-01   2.96436400e+05 
     3863    3864    1       1.08600000e-01   3.01825392e+05 
     3865    3866    1       1.09620000e-01   2.88905200e+05 
     3865    3867    1       1.09620000e-01   2.88905200e+05 
     3865    3868    1       1.09620000e-01   2.88905200e+05 
     3865    3869    1       1.53720000e-01   1.90489152e+05 
     3869    3870    1       1.53720000e-01   1.90489152e+05 
     3869    3874    1       1.51510000e-01   2.03844480e+05 
     3869    3898    1       1.51510000e-01   2.03844480e+05 
     3870    3871    1       1.09620000e-01   2.88905200e+05 
     3870    3872    1       1.09620000e-01   2.88905200e+05 
     3870    3873    1       1.09620000e-01   2.88905200e+05 
     3874    3875    1       1.40560000e-01   2.89591376e+05 
     3874    3895    1       1.39860000e-01   2.96436400e+05 
     3875    3876    1       1.40560000e-01   2.89591376e+05 
     3875    3897    1       1.48290000e-01   2.25408816e+05 
     3876    3877    1       1.08600000e-01   3.01825392e+05 
     3876    3878    1       1.39860000e-01   2.96436400e+05 
     3878    3879    1       1.51590000e-01   2.03342400e+05 
     3878    3894    1       1.39860000e-01   2.96436400e+05 
     3879    3880    1       1.09470000e-01   2.90754528e+05 
     3879    3881    1       1.55780000e-01   1.78983152e+05 
     3879    3889    1       1.54250000e-01   1.87443200e+05 
     3881    3882    1       1.09470000e-01   2.90754528e+05 
     3881    3883    1       1.54250000e-01   1.87443200e+05 
     3881    3894    1       1.51590000e-01   2.03342400e+05 
     3883    3884    1       1.09540000e-01   2.89892624e+05 
     3883    3885    1       1.54250000e-01   1.87443200e+05 
     3883    3891    1       1.54830000e-01   1.84179680e+05 
     3885    3886    1       1.09470000e-01   2.90754528e+05 
     3885    3887    1       1.55780000e-01   1.78983152e+05 
     3887    3888    1       1.09470000e-01   2.90754528e+05 
     3889    3887    1       1.54250000e-01   1.87443200e+05 
     3889    3890    1       1.09540000e-01   2.89892624e+05 
     3889    3891    1       1.54830000e-01   1.84179680e+05 
     3891    3892    1       1.09540000e-01   2.89892624e+05 
     3891    3893    1       1.09540000e-01   2.89892624e+05 
     3894    3895    1       1.39860000e-01   2.96436400e+05 
     3895    3896    1       1.08600000e-01   3.01825392e+05 
     3897    3898    1       1.40560000e-01   2.89591376e+05 
     3897    3932    1       1.40560000e-01   2.89591376e+05 
     3898    3899    1       1.39860000e-01   2.96436400e+05 
     3899    3900    1       1.08600000e-01   3.01825392e+05 
     3899    3901    1       1.39860000e-01   2.96436400e+05 
     3901    3902    1       1.51590000e-01   2.03342400e+05 
     3901    3931    1       1.39860000e-01   2.96436400e+05 
     3902    3903    1       1.09470000e-01   2.90754528e+05 
     3902    3904    1       1.55780000e-01   1.78983152e+05 
     3902    3926    1       1.54250000e-01   1.87443200e+05 
     3904    3905    1       1.09470000e-01   2.90754528e+05 
     3904    3906    1       1.54250000e-01   1.87443200e+05 
     3904    3931    1       1.51590000e-01   2.03342400e+05 
     3906    3907    1       1.09540000e-01   2.89892624e+05 
     3906    3908    1       1.54250000e-01   1.87443200e+05 
     3906    3928    1       1.54830000e-01   1.84179680e+05 
     3908    3909    1       1.09470000e-01   2.90754528e+05 
     3908    3910    1       1.51590000e-01   2.03342400e+05 
     3908    3924    1       1.55780000e-01   1.78983152e+05 
     3910    3911    1       1.39860000e-01   2.96436400e+05 
     3910    3919    1       1.39860000e-01   2.96436400e+05 
     3911    3912    1       1.39860000e-01   2.96436400e+05 
     3911    3924    1       1.51590000e-01   2.03342400e+05 
     3912    3913    1       1.51470000e-01   2.04103888e+05 
     3912    3917    1       1.39860000e-01   2.96436400e+05 
     3913    3914    1       1.09620000e-01   2.88905200e+05 
     3913    3915    1       1.09620000e-01   2.88905200e+05 
     3913    3916    1       1.09620000e-01   2.88905200e+05 
     3917    3918    1       1.39860000e-01   2.96436400e+05 
     3917    5610    1       1.51590000e-01   2.03342400e+05 
     3918    3919    1       1.39860000e-01   2.96436400e+05 
     3918    5612    1       1.51590000e-01   2.03342400e+05 
     3919    3920    1       1.51470000e-01   2.04103888e+05 
     3920    3921    1       1.09620000e-01   2.88905200e+05 
     3920    3922    1       1.09620000e-01   2.88905200e+05 
     3920    3923    1       1.09620000e-01   2.88905200e+05 
     3924    3925    1       1.09470000e-01   2.90754528e+05 
     3924    3926    1       1.54250000e-01   1.87443200e+05 
     3926    3927    1       1.09540000e-01   2.89892624e+05 
     3926    3928    1       1.54830000e-01   1.84179680e+05 
     3928    3929    1       1.09540000e-01   2.89892624e+05 
     3928    3930    1       1.09540000e-01   2.89892624e+05 
     3931    3932    1       1.39860000e-01   2.96436400e+05 
     3932    3933    1       1.08600000e-01   3.01825392e+05 
     3934    3935    1       1.09620000e-01   2.88905200e+05 
     3934    3936    1       1.09620000e-01   2.88905200e+05 
     3934    3937    1       1.09620000e-01   2.88905200e+05 
     3934    3938    1       1.53720000e-01   1.90489152e+05 
     3938    3939    1       1.53720000e-01   1.90489152e+05 
     3938    3943    1       1.51510000e-01   2.03844480e+05 
     3938    3967    1       1.51510000e-01   2.03844480e+05 
     3939    3940    1       1.09620000e-01   2.88905200e+05 
     3939    3941    1       1.09620000e-01   2.88905200e+05 
     3939    3942    1       1.09620000e-01   2.88905200e+05 
     3943    3944    1       1.40560000e-01   2.89591376e+05 
     3943    3964    1       1.39860000e-01   2.96436400e+05 
     3944    3945    1       1.40560000e-01   2.89591376e+05 
     3944    3966    1       1.48290000e-01   2.25408816e+05 
     3945    3946    1       1.08600000e-01   3.01825392e+05 
     3945    3947    1       1.39860000e-01   2.96436400e+05 
     3947    3948    1       1.51590000e-01   2.03342400e+05 
     3947    3963    1       1.39860000e-01   2.96436400e+05 
     3948    3949    1       1.09470000e-01   2.90754528e+05 
     3948    3950    1       1.55780000e-01   1.78983152e+05 
     3948    3958    1       1.54250000e-01   1.87443200e+05 
     3950    3951    1       1.09470000e-01   2.90754528e+05 
     3950    3952    1       1.54250000e-01   1.87443200e+05 
     3950    3963    1       1.51590000e-01   2.03342400e+05 
     3952    3953    1       1.09540000e-01   2.89892624e+05 
     3952    3954    1       1.54250000e-01   1.87443200e+05 
     3952    3960    1       1.54830000e-01   1.84179680e+05 
     3954    3955    1       1.09470000e-01   2.90754528e+05 
     3954    3956    1       1.55780000e-01   1.78983152e+05 
     3956    3957    1       1.09470000e-01   2.90754528e+05 
     3958    3956    1       1.54250000e-01   1.87443200e+05 
     3958    3959    1       1.09540000e-01   2.89892624e+05 
     3958    3960    1       1.54830000e-01   1.84179680e+05 
     3960    3961    1       1.09540000e-01   2.89892624e+05 
     3960    3962    1       1.09540000e-01   2.89892624e+05 
     3963    3964    1       1.39860000e-01   2.96436400e+05 
     3964    3965    1       1.08600000e-01   3.01825392e+05 
     3966    3967    1       1.40560000e-01   2.89591376e+05 
     3966    4001    1       1.40560000e-01   2.89591376e+05 
     3967    3968    1       1.39860000e-01   2.96436400e+05 
     3968    3969    1       1.08600000e-01   3.01825392e+05 
     3968    3970    1       1.39860000e-01   2.96436400e+05 
     3970    3971    1       1.51590000e-01   2.03342400e+05 
     3970    4000    1       1.39860000e-01   2.96436400e+05 
     3971    3972    1       1.09470000e-01   2.90754528e+05 
     3971    3973    1       1.55780000e-01   1.78983152e+05 
     3971    3995    1       1.54250000e-01   1.87443200e+05 
     3973    3974    1       1.09470000e-01   2.90754528e+05 
     3973    3975    1       1.54250000e-01   1.87443200e+05 
     3973    4000    1       1.51590000e-01   2.03342400e+05 
     3975    3976    1       1.09540000e-01   2.89892624e+05 
     3975    3977    1       1.54250000e-01   1.87443200e+05 
     3975    3997    1       1.54830000e-01   1.84179680e+05 
     3977    3978    1       1.09470000e-01   2.90754528e+05 
     3977    3979    1       1.51590000e-01   2.03342400e+05 
     3977    3993    1       1.55780000e-01   1.78983152e+05 
     3979    3980    1       1.39860000e-01   2.96436400e+05 
     3979    3988    1       1.39860000e-01   2.96436400e+05 
     3980    3981    1       1.39860000e-01   2.96436400e+05 
     3980    3993    1       1.51590000e-01   2.03342400e+05 
     3981    3982    1       1.51470000e-01   2.04103888e+05 
     3981    3986    1       1.39860000e-01   2.96436400e+05 
     3982    3983    1       1.09620000e-01   2.88905200e+05 
     3982    3984    1       1.09620000e-01   2.88905200e+05 
     3982    3985    1       1.09620000e-01   2.88905200e+05 
     3986    1815    1       1.51590000e-01   2.03342400e+05 
     3986    3987    1       1.39860000e-01   2.96436400e+05 
     3987    1817    1       1.51590000e-01   2.03342400e+05 
     3987    3988    1       1.39860000e-01   2.96436400e+05 
     3988    3989    1       1.51470000e-01   2.04103888e+05 
     3989    3990    1       1.09620000e-01   2.88905200e+05 
     3989    3991    1       1.09620000e-01   2.88905200e+05 
     3989    3992    1       1.09620000e-01   2.88905200e+05 
     3993    3994    1       1.09470000e-01   2.90754528e+05 
     3993    3995    1       1.54250000e-01   1.87443200e+05 
     3995    3996    1       1.09540000e-01   2.89892624e+05 
     3995    3997    1       1.54830000e-01   1.84179680e+05 
     3997    3998    1       1.09540000e-01   2.89892624e+05 
     3997    3999    1       1.09540000e-01   2.89892624e+05 
     4000    4001    1       1.39860000e-01   2.96436400e+05 
     4001    4002    1       1.08600000e-01   3.01825392e+05 
     4003    4004    1       1.09620000e-01   2.88905200e+05 
     4003    4005    1       1.09620000e-01   2.88905200e+05 
     4003    4006    1       1.09620000e-01   2.88905200e+05 
     4003    4007    1       1.53720000e-01   1.90489152e+05 
     4007    4008    1       1.53720000e-01   1.90489152e+05 
     4007    4012    1       1.51510000e-01   2.03844480e+05 
     4007    4036    1       1.51510000e-01   2.03844480e+05 
     4008    4009    1       1.09620000e-01   2.88905200e+05 
     4008    4010    1       1.09620000e-01   2.88905200e+05 
     4008    4011    1       1.09620000e-01   2.88905200e+05 
     4012    4013    1       1.40560000e-01   2.89591376e+05 
     4012    4033    1       1.39860000e-01   2.96436400e+05 
     4013    4014    1       1.40560000e-01   2.89591376e+05 
     4013    4035    1       1.48290000e-01   2.25408816e+05 
     4014    4015    1       1.08600000e-01   3.01825392e+05 
     4014    4016    1       1.39860000e-01   2.96436400e+05 
     4016    4017    1       1.51590000e-01   2.03342400e+05 
     4016    4032    1       1.39860000e-01   2.96436400e+05 
     4017    4018    1       1.09470000e-01   2.90754528e+05 
     4017    4019    1       1.55780000e-01   1.78983152e+05 
     4017    4027    1       1.54250000e-01   1.87443200e+05 
     4019    4020    1       1.09470000e-01   2.90754528e+05 
     4019    4021    1       1.54250000e-01   1.87443200e+05 
     4019    4032    1       1.51590000e-01   2.03342400e+05 
     4021    4022    1       1.09540000e-01   2.89892624e+05 
     4021    4023    1       1.54250000e-01   1.87443200e+05 
     4021    4029    1       1.54830000e-01   1.84179680e+05 
     4023    4024    1       1.09470000e-01   2.90754528e+05 
     4023    4025    1       1.55780000e-01   1.78983152e+05 
     4025    4026    1       1.09470000e-01   2.90754528e+05 
     4027    4025    1       1.54250000e-01   1.87443200e+05 
     4027    4028    1       1.09540000e-01   2.89892624e+05 
     4027    4029    1       1.54830000e-01   1.84179680e+05 
     4029    4030    1       1.09540000e-01   2.89892624e+05 
     4029    4031    1       1.09540000e-01   2.89892624e+05 
     4032    4033    1       1.39860000e-01   2.96436400e+05 
     4033    4034    1       1.08600000e-01   3.01825392e+05 
     4035    4036    1       1.40560000e-01   2.89591376e+05 
     4035    4070    1       1.40560000e-01   2.89591376e+05 
     4036    4037    1       1.39860000e-01   2.96436400e+05 
     4037    4038    1       1.08600000e-01   3.01825392e+05 
     4037    4039    1       1.39860000e-01   2.96436400e+05 
     4039    4040    1       1.51590000e-01   2.03342400e+05 
     4039    4069    1       1.39860000e-01   2.96436400e+05 
     4040    4041    1       1.09470000e-01   2.90754528e+05 
     4040    4042    1       1.55780000e-01   1.78983152e+05 
     4040    4064    1       1.54250000e-01   1.87443200e+05 
     4042    4043    1       1.09470000e-01   2.90754528e+05 
     4042    4044    1       1.54250000e-01   1.87443200e+05 
     4042    4069    1       1.51590000e-01   2.03342400e+05 
     4044    4045    1       1.09540000e-01   2.89892624e+05 
     4044    4046    1       1.54250000e-01   1.87443200e+05 
     4044    4066    1       1.54830000e-01   1.84179680e+05 
     4046    4047    1       1.09470000e-01   2.90754528e+05 
     4046    4048    1       1.51590000e-01   2.03342400e+05 
     4046    4062    1       1.55780000e-01   1.78983152e+05 
     4048    4049    1       1.39860000e-01   2.96436400e+05 
     4048    4057    1       1.39860000e-01   2.96436400e+05 
     4049    4050    1       1.39860000e-01   2.96436400e+05 
     4049    4062    1       1.51590000e-01   2.03342400e+05 
     4050    4051    1       1.51470000e-01   2.04103888e+05 
     4050    4055    1       1.39860000e-01   2.96436400e+05 
     4051    4052    1       1.09620000e-01   2.88905200e+05 
     4051    4053    1       1.09620000e-01   2.88905200e+05 
     4051    4054    1       1.09620000e-01   2.88905200e+05 
     4055    4056    1       1.39860000e-01   2.96436400e+05 
     4055    5888    1       1.51590000e-01   2.03342400e+05 
     4056    4057    1       1.39860000e-01   2.96436400e+05 
     4056    5886    1       1.51590000e-01   2.03342400e+05 
     4057    4058    1       1.51470000e-01   2.04103888e+05 
     4058    4059    1       1.09620000e-01   2.88905200e+05 
     4058    4060    1       1.09620000e-01   2.88905200e+05 
     4058    4061    1       1.09620000e-01   2.88905200e+05 
     4062    4063    1       1.09470000e-01   2.90754528e+05 
     4062    4064    1       1.54250000e-01   1.87443200e+05 
     4064    4065    1       1.09540000e-01   2.89892624e+05 
     4064    4066    1       1.54830000e-01   1.84179680e+05 
     4066    4067    1       1.09540000e-01   2.89892624e+05 
     4066    4068    1       1.09540000e-01   2.89892624e+05 
     4069    4070    1       1.39860000e-01   2.96436400e+05 
     4070    4071    1       1.08600000e-01   3.01825392e+05 
     4072    4073    1       1.09620000e-01   2.88905200e+05 
     4072    4074    1       1.09620000e-01   2.88905200e+05 
     4072    4075    1       1.09620000e-01   2.88905200e+05 
     4072    4076    1       1.53720000e-01   1.90489152e+05 
     4076    4077    1       1.53720000e-01   1.90489152e+05 
     4076    4081    1       1.51510000e-01   2.03844480e+05 
     4076    4105    1       1.51510000e-01   2.03844480e+05 
     4077    4078    1       1.09620000e-01   2.88905200e+05 
     4077    4079    1       1.09620000e-01   2.88905200e+05 
     4077    4080    1       1.09620000e-01   2.88905200e+05 
     4081    4082    1       1.40560000e-01   2.89591376e+05 
     4081    4102    1       1.39860000e-01   2.96436400e+05 
     4082    4083    1       1.40560000e-01   2.89591376e+05 
     4082    4104    1       1.48290000e-01   2.25408816e+05 
     4083    4084    1       1.08600000e-01   3.01825392e+05 
     4083    4085    1       1.39860000e-01   2.96436400e+05 
     4085    4086    1       1.51590000e-01   2.03342400e+05 
     4085    4101    1       1.39860000e-01   2.96436400e+05 
     4086    4087    1       1.09470000e-01   2.90754528e+05 
     4086    4088    1       1.55780000e-01   1.78983152e+05 
     4086    4096    1       1.54250000e-01   1.87443200e+05 
     4088    4089    1       1.09470000e-01   2.90754528e+05 
     4088    4090    1       1.54250000e-01   1.87443200e+05 
     4088    4101    1       1.51590000e-01   2.03342400e+05 
     4090    4091    1       1.09540000e-01   2.89892624e+05 
     4090    4092    1       1.54250000e-01   1.87443200e+05 
     4090    4098    1       1.54830000e-01   1.84179680e+05 
     4092    4093    1       1.09470000e-01   2.90754528e+05 
     4092    4094    1       1.55780000e-01   1.78983152e+05 
     4094    4095    1       1.09470000e-01   2.90754528e+05 
     4096    4094    1       1.54250000e-01   1.87443200e+05 
     4096    4097    1       1.09540000e-01   2.89892624e+05 
     4096    4098    1       1.54830000e-01   1.84179680e+05 
     4098    4099    1       1.09540000e-01   2.89892624e+05 
     4098    4100    1       1.09540000e-01   2.89892624e+05 
     4101    4102    1       1.39860000e-01   2.96436400e+05 
     4102    4103    1       1.08600000e-01   3.01825392e+05 
     4104    4105    1       1.40560000e-01   2.89591376e+05 
     4104    4139    1       1.40560000e-01   2.89591376e+05 
     4105    4106    1       1.39860000e-01   2.96436400e+05 
     4106    4107    1       1.08600000e-01   3.01825392e+05 
     4106    4108    1       1.39860000e-01   2.96436400e+05 
     4108    4109    1       1.51590000e-01   2.03342400e+05 
     4108    4138    1       1.39860000e-01   2.96436400e+05 
     4109    4110    1       1.09470000e-01   2.90754528e+05 
     4109    4111    1       1.55780000e-01   1.78983152e+05 
     4109    4133    1       1.54250000e-01   1.87443200e+05 
     4111    4112    1       1.09470000e-01   2.90754528e+05 
     4111    4113    1       1.54250000e-01   1.87443200e+05 
     4111    4138    1       1.51590000e-01   2.03342400e+05 
     4113    4114    1       1.09540000e-01   2.89892624e+05 
     4113    4115    1       1.54250000e-01   1.87443200e+05 
     4113    4135    1       1.54830000e-01   1.84179680e+05 
     4115    4116    1       1.09470000e-01   2.90754528e+05 
     4115    4117    1       1.51590000e-01   2.03342400e+05 
     4115    4131    1       1.55780000e-01   1.78983152e+05 
     4117    4118    1       1.39860000e-01   2.96436400e+05 
     4117    4126    1       1.39860000e-01   2.96436400e+05 
     4118    4119    1       1.39860000e-01   2.96436400e+05 
     4118    4131    1       1.51590000e-01   2.03342400e+05 
     4119    4120    1       1.51470000e-01   2.04103888e+05 
     4119    4124    1       1.39860000e-01   2.96436400e+05 
     4120    4121    1       1.09620000e-01   2.88905200e+05 
     4120    4122    1       1.09620000e-01   2.88905200e+05 
     4120    4123    1       1.09620000e-01   2.88905200e+05 
     4124    2438    1       1.51590000e-01   2.03342400e+05 
     4124    4125    1       1.39860000e-01   2.96436400e+05 
     4125    2436    1       1.51590000e-01   2.03342400e+05 
     4125    4126    1       1.39860000e-01   2.96436400e+05 
     4126    4127    1       1.51470000e-01   2.04103888e+05 
     4127    4128    1       1.09620000e-01   2.88905200e+05 
     4127    4129    1       1.09620000e-01   2.88905200e+05 
     4127    4130    1       1.09620000e-01   2.88905200e+05 
     4131    4132    1       1.09470000e-01   2.90754528e+05 
     4131    4133    1       1.54250000e-01   1.87443200e+05 
     4133    4134    1       1.09540000e-01   2.89892624e+05 
     4133    4135    1       1.54830000e-01   1.84179680e+05 
     4135    4136    1       1.09540000e-01   2.89892624e+05 
     4135    4137    1       1.09540000e-01   2.89892624e+05 
     4138    4139    1       1.39860000e-01   2.96436400e+05 
     4139    4140    1       1.08600000e-01   3.01825392e+05 
     4141    4142    1       1.09620000e-01   2.88905200e+05 
     4141    4143    1       1.09620000e-01   2.88905200e+05 
     4141    4144    1       1.09620000e-01   2.88905200e+05 
     4141    4145    1       1.53720000e-01   1.90489152e+05 
     4145    4146    1       1.53720000e-01   1.90489152e+05 
     4145    4150    1       1.51510000e-01   2.03844480e+05 
     4145    4174    1       1.51510000e-01   2.03844480e+05 
     4146    4147    1       1.09620000e-01   2.88905200e+05 
     4146    4148    1       1.09620000e-01   2.88905200e+05 
     4146    4149    1       1.09620000e-01   2.88905200e+05 
     4150    4151    1       1.40560000e-01   2.89591376e+05 
     4150    4171    1       1.39860000e-01   2.96436400e+05 
     4151    4152    1       1.40560000e-01   2.89591376e+05 
     4151    4173    1       1.48290000e-01   2.25408816e+05 
     4152    4153    1       1.08600000e-01   3.01825392e+05 
     4152    4154    1       1.39860000e-01   2.96436400e+05 
     4154    4155    1       1.51590000e-01   2.03342400e+05 
     4154    4170    1       1.39860000e-01   2.96436400e+05 
     4155    4156    1       1.09470000e-01   2.90754528e+05 
     4155    4157    1       1.55780000e-01   1.78983152e+05 
     4155    4165    1       1.54250000e-01   1.87443200e+05 
     4157    4158    1       1.09470000e-01   2.90754528e+05 
     4157    4159    1       1.54250000e-01   1.87443200e+05 
     4157    4170    1       1.51590000e-01   2.03342400e+05 
     4159    4160    1       1.09540000e-01   2.89892624e+05 
     4159    4161    1       1.54250000e-01   1.87443200e+05 
     4159    4167    1       1.54830000e-01   1.84179680e+05 
     4161    4162    1       1.09470000e-01   2.90754528e+05 
     4161    4163    1       1.55780000e-01   1.78983152e+05 
     4163    4164    1       1.09470000e-01   2.90754528e+05 
     4165    4163    1       1.54250000e-01   1.87443200e+05 
     4165    4166    1       1.09540000e-01   2.89892624e+05 
     4165    4167    1       1.54830000e-01   1.84179680e+05 
     4167    4168    1       1.09540000e-01   2.89892624e+05 
     4167    4169    1       1.09540000e-01   2.89892624e+05 
     4170    4171    1       1.39860000e-01   2.96436400e+05 
     4171    4172    1       1.08600000e-01   3.01825392e+05 
     4173    4174    1       1.40560000e-01   2.89591376e+05 
     4173    4208    1       1.40560000e-01   2.89591376e+05 
     4174    4175    1       1.39860000e-01   2.96436400e+05 
     4175    4176    1       1.08600000e-01   3.01825392e+05 
     4175    4177    1       1.39860000e-01   2.96436400e+05 
     4177    4178    1       1.51590000e-01   2.03342400e+05 
     4177    4207    1       1.39860000e-01   2.96436400e+05 
     4178    4179    1       1.09470000e-01   2.90754528e+05 
     4178    4180    1       1.55780000e-01   1.78983152e+05 
     4178    4202    1       1.54250000e-01   1.87443200e+05 
     4180    4181    1       1.09470000e-01   2.90754528e+05 
     4180    4182    1       1.54250000e-01   1.87443200e+05 
     4180    4207    1       1.51590000e-01   2.03342400e+05 
     4182    4183    1       1.09540000e-01   2.89892624e+05 
     4182    4184    1       1.54250000e-01   1.87443200e+05 
     4182    4204    1       1.54830000e-01   1.84179680e+05 
     4184    4185    1       1.09470000e-01   2.90754528e+05 
     4184    4186    1       1.51590000e-01   2.03342400e+05 
     4184    4200    1       1.55780000e-01   1.78983152e+05 
     4186    4187    1       1.39860000e-01   2.96436400e+05 
     4186    4195    1       1.39860000e-01   2.96436400e+05 
     4187    4188    1       1.39860000e-01   2.96436400e+05 
     4187    4200    1       1.51590000e-01   2.03342400e+05 
     4188    4189    1       1.51470000e-01   2.04103888e+05 
     4188    4193    1       1.39860000e-01   2.96436400e+05 
     4189    4190    1       1.09620000e-01   2.88905200e+05 
     4189    4191    1       1.09620000e-01   2.88905200e+05 
     4189    4192    1       1.09620000e-01   2.88905200e+05 
     4193    2781    1       1.51590000e-01   2.03342400e+05 
     4193    4194    1       1.39860000e-01   2.96436400e+05 
     4194    2783    1       1.51590000e-01   2.03342400e+05 
     4194    4195    1       1.39860000e-01   2.96436400e+05 
     4195    4196    1       1.51470000e-01   2.04103888e+05 
     4196    4197    1       1.09620000e-01   2.88905200e+05 
     4196    4198    1       1.09620000e-01   2.88905200e+05 
     4196    4199    1       1.09620000e-01   2.88905200e+05 
     4200    4201    1       1.09470000e-01   2.90754528e+05 
     4200    4202    1       1.54250000e-01   1.87443200e+05 
     4202    4203    1       1.09540000e-01   2.89892624e+05 
     4202    4204    1       1.54830000e-01   1.84179680e+05 
     4204    4205    1       1.09540000e-01   2.89892624e+05 
     4204    4206    1       1.09540000e-01   2.89892624e+05 
     4207    4208    1       1.39860000e-01   2.96436400e+05 
     4208    4209    1       1.08600000e-01   3.01825392e+05 
     4210    4211    1       1.09620000e-01   2.88905200e+05 
     4210    4212    1       1.09620000e-01   2.88905200e+05 
     4210    4213    1       1.09620000e-01   2.88905200e+05 
     4210    4214    1       1.53720000e-01   1.90489152e+05 
     4214    4215    1       1.53720000e-01   1.90489152e+05 
     4214    4219    1       1.51510000e-01   2.03844480e+05 
     4214    4243    1       1.51510000e-01   2.03844480e+05 
     4215    4216    1       1.09620000e-01   2.88905200e+05 
     4215    4217    1       1.09620000e-01   2.88905200e+05 
     4215    4218    1       1.09620000e-01   2.88905200e+05 
     4219    4220    1       1.40560000e-01   2.89591376e+05 
     4219    4240    1       1.39860000e-01   2.96436400e+05 
     4220    4221    1       1.40560000e-01   2.89591376e+05 
     4220    4242    1       1.48290000e-01   2.25408816e+05 
     4221    4222    1       1.08600000e-01   3.01825392e+05 
     4221    4223    1       1.39860000e-01   2.96436400e+05 
     4223    4224    1       1.51590000e-01   2.03342400e+05 
     4223    4239    1       1.39860000e-01   2.96436400e+05 
     4224    4225    1       1.09470000e-01   2.90754528e+05 
     4224    4226    1       1.55780000e-01   1.78983152e+05 
     4224    4234    1       1.54250000e-01   1.87443200e+05 
     4226    4227    1       1.09470000e-01   2.90754528e+05 
     4226    4228    1       1.54250000e-01   1.87443200e+05 
     4226    4239    1       1.51590000e-01   2.03342400e+05 
     4228    4229    1       1.09540000e-01   2.89892624e+05 
     4228    4230    1       1.54830000e-01   1.84179680e+05 
     4228    4236    1       1.54830000e-01   1.84179680e+05 
     4230    4231    1       1.09540000e-01   2.89892624e+05 
     4230    4232    1       1.54830000e-01   1.84179680e+05 
     4232    4233    1       1.09540000e-01   2.89892624e+05 
     4232    4234    1       1.54830000e-01   1.84179680e+05 
     4234    4235    1       1.09540000e-01   2.89892624e+05 
     4234    4236    1       1.54830000e-01   1.84179680e+05 
     4236    4237    1       1.09540000e-01   2.89892624e+05 
     4236    4238    1       1.09540000e-01   2.89892624e+05 
     4239    4240    1       1.39860000e-01   2.96436400e+05 
     4240    4241    1       1.08600000e-01   3.01825392e+05 
     4242    4243    1       1.40560000e-01   2.89591376e+05 
     4242    4277    1       1.40560000e-01   2.89591376e+05 
     4243    4244    1       1.39860000e-01   2.96436400e+05 
     4244    4245    1       1.08600000e-01   3.01825392e+05 
     4244    4246    1       1.39860000e-01   2.96436400e+05 
     4246    4247    1       1.51590000e-01   2.03342400e+05 
     4246    4276    1       1.39860000e-01   2.96436400e+05 
     4247    4248    1       1.09470000e-01   2.90754528e+05 
     4247    4249    1       1.55780000e-01   1.78983152e+05 
     4247    4271    1       1.54250000e-01   1.87443200e+05 
     4249    4250    1       1.09470000e-01   2.90754528e+05 
     4249    4251    1       1.54250000e-01   1.87443200e+05 
     4249    4276    1       1.51590000e-01   2.03342400e+05 
     4251    4252    1       1.09540000e-01   2.89892624e+05 
     4251    4253    1       1.54250000e-01   1.87443200e+05 
     4251    4273    1       1.54830000e-01   1.84179680e+05 
     4253    4254    1       1.09470000e-01   2.90754528e+05 
     4253    4255    1       1.51590000e-01   2.03342400e+05 
     4253    4269    1       1.55780000e-01   1.78983152e+05 
     4255    4256    1       1.39860000e-01   2.96436400e+05 
     4255    4264    1       1.39860000e-01   2.96436400e+05 
     4256    4257    1       1.39860000e-01   2.96436400e+05 
     4256    4269    1       1.51590000e-01   2.03342400e+05 
     4257    4258    1       1.51470000e-01   2.04103888e+05 
     4257    4262    1       1.39860000e-01   2.96436400e+05 
     4258    4259    1       1.09620000e-01   2.88905200e+05 
     4258    4260    1       1.09620000e-01   2.88905200e+05 
     4258    4261    1       1.09620000e-01   2.88905200e+05 
     4262    713     1       1.51590000e-01   2.03342400e+05 
     4262    4263    1       1.39860000e-01   2.96436400e+05 
     4263    711     1       1.51590000e-01   2.03342400e+05 
     4263    4264    1       1.39860000e-01   2.96436400e+05 
     4264    4265    1       1.51470000e-01   2.04103888e+05 
     4265    4266    1       1.09620000e-01   2.88905200e+05 
     4265    4267    1       1.09620000e-01   2.88905200e+05 
     4265    4268    1       1.09620000e-01   2.88905200e+05 
     4269    4270    1       1.09470000e-01   2.90754528e+05 
     4269    4271    1       1.54250000e-01   1.87443200e+05 
     4271    4272    1       1.09540000e-01   2.89892624e+05 
     4271    4273    1       1.54830000e-01   1.84179680e+05 
     4273    4274    1       1.09540000e-01   2.89892624e+05 
     4273    4275    1       1.09540000e-01   2.89892624e+05 
     4276    4277    1       1.39860000e-01   2.96436400e+05 
     4277    4278    1       1.08600000e-01   3.01825392e+05 
     4279    4280    1       1.09620000e-01   2.88905200e+05 
     4279    4281    1       1.09620000e-01   2.88905200e+05 
     4279    4282    1       1.09620000e-01   2.88905200e+05 
     4279    4283    1       1.53720000e-01   1.90489152e+05 
     4283    4284    1       1.53720000e-01   1.90489152e+05 
     4283    4288    1       1.51510000e-01   2.03844480e+05 
     4283    4312    1       1.51510000e-01   2.03844480e+05 
     4284    4285    1       1.09620000e-01   2.88905200e+05 
     4284    4286    1       1.09620000e-01   2.88905200e+05 
     4284    4287    1       1.09620000e-01   2.88905200e+05 
     4288    4289    1       1.40560000e-01   2.89591376e+05 
     4288    4309    1       1.39860000e-01   2.96436400e+05 
     4289    4290    1       1.40560000e-01   2.89591376e+05 
     4289    4311    1       1.48290000e-01   2.25408816e+05 
     4290    4291    1       1.08600000e-01   3.01825392e+05 
     4290    4292    1       1.39860000e-01   2.96436400e+05 
     4292    4293    1       1.51590000e-01   2.03342400e+05 
     4292    4308    1       1.39860000e-01   2.96436400e+05 
     4293    4294    1       1.09470000e-01   2.90754528e+05 
     4293    4295    1       1.55780000e-01   1.78983152e+05 
     4293    4303    1       1.54250000e-01   1.87443200e+05 
     4295    4296    1       1.09470000e-01   2.90754528e+05 
     4295    4297    1       1.54250000e-01   1.87443200e+05 
     4295    4308    1       1.51590000e-01   2.03342400e+05 
     4297    4298    1       1.09540000e-01   2.89892624e+05 
     4297    4299    1       1.54250000e-01   1.87443200e+05 
     4297    4305    1       1.54830000e-01   1.84179680e+05 
     4299    4300    1       1.09470000e-01   2.90754528e+05 
     4299    4301    1       1.55780000e-01   1.78983152e+05 
     4301    4302    1       1.09470000e-01   2.90754528e+05 
     4303    4301    1       1.54250000e-01   1.87443200e+05 
     4303    4304    1       1.09540000e-01   2.89892624e+05 
     4303    4305    1       1.54830000e-01   1.84179680e+05 
     4305    4306    1       1.09540000e-01   2.89892624e+05 
     4305    4307    1       1.09540000e-01   2.89892624e+05 
     4308    4309    1       1.39860000e-01   2.96436400e+05 
     4309    4310    1       1.08600000e-01   3.01825392e+05 
     4311    4312    1       1.40560000e-01   2.89591376e+05 
     4311    4346    1       1.40560000e-01   2.89591376e+05 
     4312    4313    1       1.39860000e-01   2.96436400e+05 
     4313    4314    1       1.08600000e-01   3.01825392e+05 
     4313    4315    1       1.39860000e-01   2.96436400e+05 
     4315    4316    1       1.51590000e-01   2.03342400e+05 
     4315    4345    1       1.39860000e-01   2.96436400e+05 
     4316    4317    1       1.09470000e-01   2.90754528e+05 
     4316    4318    1       1.55780000e-01   1.78983152e+05 
     4316    4340    1       1.54250000e-01   1.87443200e+05 
     4318    4319    1       1.09470000e-01   2.90754528e+05 
     4318    4320    1       1.54250000e-01   1.87443200e+05 
     4318    4345    1       1.51590000e-01   2.03342400e+05 
     4320    4321    1       1.09540000e-01   2.89892624e+05 
     4320    4322    1       1.54250000e-01   1.87443200e+05 
     4320    4342    1       1.54830000e-01   1.84179680e+05 
     4322    4323    1       1.09470000e-01   2.90754528e+05 
     4322    4324    1       1.51590000e-01   2.03342400e+05 
     4322    4338    1       1.55780000e-01   1.78983152e+05 
     4324    4325    1       1.39860000e-01   2.96436400e+05 
     4324    4333    1       1.39860000e-01   2.96436400e+05 
     4325    4326    1       1.39860000e-01   2.96436400e+05 
     4325    4338    1       1.51590000e-01   2.03342400e+05 
     4326    4327    1       1.51470000e-01   2.04103888e+05 
     4326    4331    1       1.39860000e-01   2.96436400e+05 
     4327    4328    1       1.09620000e-01   2.88905200e+05 
     4327    4329    1       1.09620000e-01   2.88905200e+05 
     4327    4330    1       1.09620000e-01   2.88905200e+05 
     4331    4332    1       1.39860000e-01   2.96436400e+05 
     4331    4989    1       1.51590000e-01   2.03342400e+05 
     4332    4333    1       1.39860000e-01   2.96436400e+05 
     4332    4991    1       1.51590000e-01   2.03342400e+05 
     4333    4334    1       1.51470000e-01   2.04103888e+05 
     4334    4335    1       1.09620000e-01   2.88905200e+05 
     4334    4336    1       1.09620000e-01   2.88905200e+05 
     4334    4337    1       1.09620000e-01   2.88905200e+05 
     4338    4339    1       1.09470000e-01   2.90754528e+05 
     4338    4340    1       1.54250000e-01   1.87443200e+05 
     4340    4341    1       1.09540000e-01   2.89892624e+05 
     4340    4342    1       1.54830000e-01   1.84179680e+05 
     4342    4343    1       1.09540000e-01   2.89892624e+05 
     4342    4344    1       1.09540000e-01   2.89892624e+05 
     4345    4346    1       1.39860000e-01   2.96436400e+05 
     4346    4347    1       1.08600000e-01   3.01825392e+05 
     4348    4349    1       1.09620000e-01   2.88905200e+05 
     4348    4350    1       1.09620000e-01   2.88905200e+05 
     4348    4351    1       1.09620000e-01   2.88905200e+05 
     4348    4352    1       1.53720000e-01   1.90489152e+05 
     4352    4353    1       1.53720000e-01   1.90489152e+05 
     4352    4357    1       1.51510000e-01   2.03844480e+05 
     4352    4381    1       1.51510000e-01   2.03844480e+05 
     4353    4354    1       1.09620000e-01   2.88905200e+05 
     4353    4355    1       1.09620000e-01   2.88905200e+05 
     4353    4356    1       1.09620000e-01   2.88905200e+05 
     4357    4358    1       1.40560000e-01   2.89591376e+05 
     4357    4378    1       1.39860000e-01   2.96436400e+05 
     4358    4359    1       1.40560000e-01   2.89591376e+05 
     4358    4380    1       1.48290000e-01   2.25408816e+05 
     4359    4360    1       1.08600000e-01   3.01825392e+05 
     4359    4361    1       1.39860000e-01   2.96436400e+05 
     4361    4362    1       1.51590000e-01   2.03342400e+05 
     4361    4377    1       1.39860000e-01   2.96436400e+05 
     4362    4363    1       1.09470000e-01   2.90754528e+05 
     4362    4364    1       1.55780000e-01   1.78983152e+05 
     4362    4372    1       1.54250000e-01   1.87443200e+05 
     4364    4365    1       1.09470000e-01   2.90754528e+05 
     4364    4366    1       1.54250000e-01   1.87443200e+05 
     4364    4377    1       1.51590000e-01   2.03342400e+05 
     4366    4367    1       1.09540000e-01   2.89892624e+05 
     4366    4368    1       1.54250000e-01   1.87443200e+05 
     4366    4374    1       1.54830000e-01   1.84179680e+05 
     4368    4369    1       1.09470000e-01   2.90754528e+05 
     4368    4370    1       1.55780000e-01   1.78983152e+05 
     4370    4371    1       1.09470000e-01   2.90754528e+05 
     4372    4370    1       1.54250000e-01   1.87443200e+05 
     4372    4373    1       1.09540000e-01   2.89892624e+05 
     4372    4374    1       1.54830000e-01   1.84179680e+05 
     4374    4375    1       1.09540000e-01   2.89892624e+05 
     4374    4376    1       1.09540000e-01   2.89892624e+05 
     4377    4378    1       1.39860000e-01   2.96436400e+05 
     4378    4379    1       1.08600000e-01   3.01825392e+05 
     4380    4381    1       1.40560000e-01   2.89591376e+05 
     4380    4415    1       1.40560000e-01   2.89591376e+05 
     4381    4382    1       1.39860000e-01   2.96436400e+05 
     4382    4383    1       1.08600000e-01   3.01825392e+05 
     4382    4384    1       1.39860000e-01   2.96436400e+05 
     4384    4385    1       1.51590000e-01   2.03342400e+05 
     4384    4414    1       1.39860000e-01   2.96436400e+05 
     4385    4386    1       1.09470000e-01   2.90754528e+05 
     4385    4387    1       1.55780000e-01   1.78983152e+05 
     4385    4409    1       1.54250000e-01   1.87443200e+05 
     4387    4388    1       1.09470000e-01   2.90754528e+05 
     4387    4389    1       1.54250000e-01   1.87443200e+05 
     4387    4414    1       1.51590000e-01   2.03342400e+05 
     4389    4390    1       1.09540000e-01   2.89892624e+05 
     4389    4391    1       1.54250000e-01   1.87443200e+05 
     4389    4411    1       1.54830000e-01   1.84179680e+05 
     4391    4392    1       1.09470000e-01   2.90754528e+05 
     4391    4393    1       1.51590000e-01   2.03342400e+05 
     4391    4407    1       1.55780000e-01   1.78983152e+05 
     4393    4394    1       1.39860000e-01   2.96436400e+05 
     4393    4402    1       1.39860000e-01   2.96436400e+05 
     4394    4395    1       1.39860000e-01   2.96436400e+05 
     4394    4407    1       1.51590000e-01   2.03342400e+05 
     4395    4396    1       1.51470000e-01   2.04103888e+05 
     4395    4400    1       1.39860000e-01   2.96436400e+05 
     4396    4397    1       1.09620000e-01   2.88905200e+05 
     4396    4398    1       1.09620000e-01   2.88905200e+05 
     4396    4399    1       1.09620000e-01   2.88905200e+05 
     4400    4401    1       1.39860000e-01   2.96436400e+05 
     4400    6093    1       1.51590000e-01   2.03342400e+05 
     4401    4402    1       1.39860000e-01   2.96436400e+05 
     4401    6095    1       1.51590000e-01   2.03342400e+05 
     4402    4403    1       1.51470000e-01   2.04103888e+05 
     4403    4404    1       1.09620000e-01   2.88905200e+05 
     4403    4405    1       1.09620000e-01   2.88905200e+05 
     4403    4406    1       1.09620000e-01   2.88905200e+05 
     4407    4408    1       1.09470000e-01   2.90754528e+05 
     4407    4409    1       1.54250000e-01   1.87443200e+05 
     4409    4410    1       1.09540000e-01   2.89892624e+05 
     4409    4411    1       1.54830000e-01   1.84179680e+05 
     4411    4412    1       1.09540000e-01   2.89892624e+05 
     4411    4413    1       1.09540000e-01   2.89892624e+05 
     4414    4415    1       1.39860000e-01   2.96436400e+05 
     4415    4416    1       1.08600000e-01   3.01825392e+05 
     4417    4418    1       1.09620000e-01   2.88905200e+05 
     4417    4419    1       1.09620000e-01   2.88905200e+05 
     4417    4420    1       1.09620000e-01   2.88905200e+05 
     4417    4421    1       1.53720000e-01   1.90489152e+05 
     4421    4422    1       1.53720000e-01   1.90489152e+05 
     4421    4426    1       1.51510000e-01   2.03844480e+05 
     4421    4450    1       1.51510000e-01   2.03844480e+05 
     4422    4423    1       1.09620000e-01   2.88905200e+05 
     4422    4424    1       1.09620000e-01   2.88905200e+05 
     4422    4425    1       1.09620000e-01   2.88905200e+05 
     4426    4427    1       1.40560000e-01   2.89591376e+05 
     4426    4447    1       1.39860000e-01   2.96436400e+05 
     4427    4428    1       1.40560000e-01   2.89591376e+05 
     4427    4449    1       1.48290000e-01   2.25408816e+05 
     4428    4429    1       1.08600000e-01   3.01825392e+05 
     4428    4430    1       1.39860000e-01   2.96436400e+05 
     4430    4431    1       1.51590000e-01   2.03342400e+05 
     4430    4446    1       1.39860000e-01   2.96436400e+05 
     4431    4432    1       1.09470000e-01   2.90754528e+05 
     4431    4433    1       1.55780000e-01   1.78983152e+05 
     4431    4441    1       1.54250000e-01   1.87443200e+05 
     4433    4434    1       1.09470000e-01   2.90754528e+05 
     4433    4435    1       1.54250000e-01   1.87443200e+05 
     4433    4446    1       1.51590000e-01   2.03342400e+05 
     4435    4436    1       1.09540000e-01   2.89892624e+05 
     4435    4437    1       1.54250000e-01   1.87443200e+05 
     4435    4443    1       1.54830000e-01   1.84179680e+05 
     4437    4438    1       1.09470000e-01   2.90754528e+05 
     4437    4439    1       1.55780000e-01   1.78983152e+05 
     4439    4440    1       1.09470000e-01   2.90754528e+05 
     4441    4439    1       1.54250000e-01   1.87443200e+05 
     4441    4442    1       1.09540000e-01   2.89892624e+05 
     4441    4443    1       1.54830000e-01   1.84179680e+05 
     4443    4444    1       1.09540000e-01   2.89892624e+05 
     4443    4445    1       1.09540000e-01   2.89892624e+05 
     4446    4447    1       1.39860000e-01   2.96436400e+05 
     4447    4448    1       1.08600000e-01   3.01825392e+05 
     4449    4450    1       1.40560000e-01   2.89591376e+05 
     4449    4484    1       1.40560000e-01   2.89591376e+05 
     4450    4451    1       1.39860000e-01   2.96436400e+05 
     4451    4452    1       1.08600000e-01   3.01825392e+05 
     4451    4453    1       1.39860000e-01   2.96436400e+05 
     4453    4454    1       1.51590000e-01   2.03342400e+05 
     4453    4483    1       1.39860000e-01   2.96436400e+05 
     4454    4455    1       1.09470000e-01   2.90754528e+05 
     4454    4456    1       1.55780000e-01   1.78983152e+05 
     4454    4478    1       1.54250000e-01   1.87443200e+05 
     4456    4457    1       1.09470000e-01   2.90754528e+05 
     4456    4458    1       1.54250000e-01   1.87443200e+05 
     4456    4483    1       1.51590000e-01   2.03342400e+05 
     4458    4459    1       1.09540000e-01   2.89892624e+05 
     4458    4460    1       1.54250000e-01   1.87443200e+05 
     4458    4480    1       1.54830000e-01   1.84179680e+05 
     4460    4461    1       1.09470000e-01   2.90754528e+05 
     4460    4462    1       1.51590000e-01   2.03342400e+05 
     4460    4476    1       1.55780000e-01   1.78983152e+05 
     4462    4463    1       1.39860000e-01   2.96436400e+05 
     4462    4471    1       1.39860000e-01   2.96436400e+05 
     4463    4464    1       1.39860000e-01   2.96436400e+05 
     4463    4476    1       1.51590000e-01   2.03342400e+05 
     4464    4465    1       1.51470000e-01   2.04103888e+05 
     4464    4469    1       1.39860000e-01   2.96436400e+05 
     4465    4466    1       1.09620000e-01   2.88905200e+05 
     4465    4467    1       1.09620000e-01   2.88905200e+05 
     4465    4468    1       1.09620000e-01   2.88905200e+05 
     4469    4470    1       1.39860000e-01   2.96436400e+05 
     4469    5405    1       1.51590000e-01   2.03342400e+05 
     4470    4471    1       1.39860000e-01   2.96436400e+05 
     4470    5403    1       1.51590000e-01   2.03342400e+05 
     4471    4472    1       1.51470000e-01   2.04103888e+05 
     4472    4473    1       1.09620000e-01   2.88905200e+05 
     4472    4474    1       1.09620000e-01   2.88905200e+05 
     4472    4475    1       1.09620000e-01   2.88905200e+05 
     4476    4477    1       1.09470000e-01   2.90754528e+05 
     4476    4478    1       1.54250000e-01   1.87443200e+05 
     4478    4479    1       1.09540000e-01   2.89892624e+05 
     4478    4480    1       1.54830000e-01   1.84179680e+05 
     4480    4481    1       1.09540000e-01   2.89892624e+05 
     4480    4482    1       1.09540000e-01   2.89892624e+05 
     4483    4484    1       1.39860000e-01   2.96436400e+05 
     4484    4485    1       1.08600000e-01   3.01825392e+05 
     4486    4487    1       1.09620000e-01   2.88905200e+05 
     4486    4488    1       1.09620000e-01   2.88905200e+05 
     4486    4489    1       1.09620000e-01   2.88905200e+05 
     4486    4490    1       1.53720000e-01   1.90489152e+05 
     4490    4491    1       1.53720000e-01   1.90489152e+05 
     4490    4495    1       1.51510000e-01   2.03844480e+05 
     4490    4519    1       1.51510000e-01   2.03844480e+05 
     4491    4492    1       1.09620000e-01   2.88905200e+05 
     4491    4493    1       1.09620000e-01   2.88905200e+05 
     4491    4494    1       1.09620000e-01   2.88905200e+05 
     4495    4496    1       1.40560000e-01   2.89591376e+05 
     4495    4516    1       1.39860000e-01   2.96436400e+05 
     4496    4497    1       1.40560000e-01   2.89591376e+05 
     4496    4518    1       1.48290000e-01   2.25408816e+05 
     4497    4498    1       1.08600000e-01   3.01825392e+05 
     4497    4499    1       1.39860000e-01   2.96436400e+05 
     4499    4500    1       1.51590000e-01   2.03342400e+05 
     4499    4515    1       1.39860000e-01   2.96436400e+05 
     4500    4501    1       1.09470000e-01   2.90754528e+05 
     4500    4502    1       1.55780000e-01   1.78983152e+05 
     4500    4510    1       1.54250000e-01   1.87443200e+05 
     4502    4503    1       1.09470000e-01   2.90754528e+05 
     4502    4504    1       1.54250000e-01   1.87443200e+05 
     4502    4515    1       1.51590000e-01   2.03342400e+05 
     4504    4505    1       1.09540000e-01   2.89892624e+05 
     4504    4506    1       1.54250000e-01   1.87443200e+05 
     4504    4512    1       1.54830000e-01   1.84179680e+05 
     4506    4507    1       1.09470000e-01   2.90754528e+05 
     4506    4508    1       1.55780000e-01   1.78983152e+05 
     4508    4509    1       1.09470000e-01   2.90754528e+05 
     4510    4508    1       1.54250000e-01   1.87443200e+05 
     4510    4511    1       1.09540000e-01   2.89892624e+05 
     4510    4512    1       1.54830000e-01   1.84179680e+05 
     4512    4513    1       1.09540000e-01   2.89892624e+05 
     4512    4514    1       1.09540000e-01   2.89892624e+05 
     4515    4516    1       1.39860000e-01   2.96436400e+05 
     4516    4517    1       1.08600000e-01   3.01825392e+05 
     4518    4519    1       1.40560000e-01   2.89591376e+05 
     4518    4553    1       1.40560000e-01   2.89591376e+05 
     4519    4520    1       1.39860000e-01   2.96436400e+05 
     4520    4521    1       1.08600000e-01   3.01825392e+05 
     4520    4522    1       1.39860000e-01   2.96436400e+05 
     4522    4523    1       1.51590000e-01   2.03342400e+05 
     4522    4552    1       1.39860000e-01   2.96436400e+05 
     4523    4524    1       1.09470000e-01   2.90754528e+05 
     4523    4525    1       1.55780000e-01   1.78983152e+05 
     4523    4547    1       1.54250000e-01   1.87443200e+05 
     4525    4526    1       1.09470000e-01   2.90754528e+05 
     4525    4527    1       1.54250000e-01   1.87443200e+05 
     4525    4552    1       1.51590000e-01   2.03342400e+05 
     4527    4528    1       1.09540000e-01   2.89892624e+05 
     4527    4529    1       1.54250000e-01   1.87443200e+05 
     4527    4549    1       1.54830000e-01   1.84179680e+05 
     4529    4530    1       1.09470000e-01   2.90754528e+05 
     4529    4531    1       1.51590000e-01   2.03342400e+05 
     4529    4545    1       1.55780000e-01   1.78983152e+05 
     4531    4532    1       1.39860000e-01   2.96436400e+05 
     4531    4540    1       1.39860000e-01   2.96436400e+05 
     4532    4533    1       1.39860000e-01   2.96436400e+05 
     4532    4545    1       1.51590000e-01   2.03342400e+05 
     4533    4534    1       1.51470000e-01   2.04103888e+05 
     4533    4538    1       1.39860000e-01   2.96436400e+05 
     4534    4535    1       1.09620000e-01   2.88905200e+05 
     4534    4536    1       1.09620000e-01   2.88905200e+05 
     4534    4537    1       1.09620000e-01   2.88905200e+05 
     4538    3402    1       1.51590000e-01   2.03342400e+05 
     4538    4539    1       1.39860000e-01   2.96436400e+05 
     4539    3404    1       1.51590000e-01   2.03342400e+05 
     4539    4540    1       1.39860000e-01   2.96436400e+05 
     4540    4541    1       1.51470000e-01   2.04103888e+05 
     4541    4542    1       1.09620000e-01   2.88905200e+05 
     4541    4543    1       1.09620000e-01   2.88905200e+05 
     4541    4544    1       1.09620000e-01   2.88905200e+05 
     4545    4546    1       1.09470000e-01   2.90754528e+05 
     4545    4547    1       1.54250000e-01   1.87443200e+05 
     4547    4548    1       1.09540000e-01   2.89892624e+05 
     4547    4549    1       1.54830000e-01   1.84179680e+05 
     4549    4550    1       1.09540000e-01   2.89892624e+05 
     4549    4551    1       1.09540000e-01   2.89892624e+05 
     4552    4553    1       1.39860000e-01   2.96436400e+05 
     4553    4554    1       1.08600000e-01   3.01825392e+05 
     4555    4556    1       1.09620000e-01   2.88905200e+05 
     4555    4557    1       1.09620000e-01   2.88905200e+05 
     4555    4558    1       1.09620000e-01   2.88905200e+05 
     4555    4559    1       1.53720000e-01   1.90489152e+05 
     4559    4560    1       1.53720000e-01   1.90489152e+05 
     4559    4564    1       1.51510000e-01   2.03844480e+05 
     4559    4588    1       1.51510000e-01   2.03844480e+05 
     4560    4561    1       1.09620000e-01   2.88905200e+05 
     4560    4562    1       1.09620000e-01   2.88905200e+05 
     4560    4563    1       1.09620000e-01   2.88905200e+05 
     4564    4565    1       1.40560000e-01   2.89591376e+05 
     4564    4585    1       1.39860000e-01   2.96436400e+05 
     4565    4566    1       1.40560000e-01   2.89591376e+05 
     4565    4587    1       1.48290000e-01   2.25408816e+05 
     4566    4567    1       1.08600000e-01   3.01825392e+05 
     4566    4568    1       1.39860000e-01   2.96436400e+05 
     4568    4569    1       1.51590000e-01   2.03342400e+05 
     4568    4584    1       1.39860000e-01   2.96436400e+05 
     4569    4570    1       1.09470000e-01   2.90754528e+05 
     4569    4571    1       1.55780000e-01   1.78983152e+05 
     4569    4579    1       1.54250000e-01   1.87443200e+05 
     4571    4572    1       1.09470000e-01   2.90754528e+05 
     4571    4573    1       1.54250000e-01   1.87443200e+05 
     4571    4584    1       1.51590000e-01   2.03342400e+05 
     4573    4574    1       1.09540000e-01   2.89892624e+05 
     4573    4575    1       1.54250000e-01   1.87443200e+05 
     4573    4581    1       1.54830000e-01   1.84179680e+05 
     4575    4576    1       1.09470000e-01   2.90754528e+05 
     4575    4577    1       1.55780000e-01   1.78983152e+05 
     4577    4578    1       1.09470000e-01   2.90754528e+05 
     4579    4577    1       1.54250000e-01   1.87443200e+05 
     4579    4580    1       1.09540000e-01   2.89892624e+05 
     4579    4581    1       1.54830000e-01   1.84179680e+05 
     4581    4582    1       1.09540000e-01   2.89892624e+05 
     4581    4583    1       1.09540000e-01   2.89892624e+05 
     4584    4585    1       1.39860000e-01   2.96436400e+05 
     4585    4586    1       1.08600000e-01   3.01825392e+05 
     4587    4588    1       1.40560000e-01   2.89591376e+05 
     4587    4622    1       1.40560000e-01   2.89591376e+05 
     4588    4589    1       1.39860000e-01   2.96436400e+05 
     4589    4590    1       1.08600000e-01   3.01825392e+05 
     4589    4591    1       1.39860000e-01   2.96436400e+05 
     4591    4592    1       1.51590000e-01   2.03342400e+05 
     4591    4621    1       1.39860000e-01   2.96436400e+05 
     4592    4593    1       1.09470000e-01   2.90754528e+05 
     4592    4594    1       1.55780000e-01   1.78983152e+05 
     4592    4616    1       1.54250000e-01   1.87443200e+05 
     4594    4595    1       1.09470000e-01   2.90754528e+05 
     4594    4596    1       1.54250000e-01   1.87443200e+05 
     4594    4621    1       1.51590000e-01   2.03342400e+05 
     4596    4597    1       1.09540000e-01   2.89892624e+05 
     4596    4598    1       1.54250000e-01   1.87443200e+05 
     4596    4618    1       1.54830000e-01   1.84179680e+05 
     4598    4599    1       1.09470000e-01   2.90754528e+05 
     4598    4600    1       1.51590000e-01   2.03342400e+05 
     4598    4614    1       1.55780000e-01   1.78983152e+05 
     4600    4601    1       1.39860000e-01   2.96436400e+05 
     4600    4609    1       1.39860000e-01   2.96436400e+05 
     4601    4602    1       1.39860000e-01   2.96436400e+05 
     4601    4614    1       1.51590000e-01   2.03342400e+05 
     4602    4603    1       1.51470000e-01   2.04103888e+05 
     4602    4607    1       1.39860000e-01   2.96436400e+05 
     4603    4604    1       1.09620000e-01   2.88905200e+05 
     4603    4605    1       1.09620000e-01   2.88905200e+05 
     4603    4606    1       1.09620000e-01   2.88905200e+05 
     4607    4608    1       1.39860000e-01   2.96436400e+05 
     4607    6438    1       1.51590000e-01   2.03342400e+05 
     4608    4609    1       1.39860000e-01   2.96436400e+05 
     4608    6440    1       1.51590000e-01   2.03342400e+05 
     4609    4610    1       1.51470000e-01   2.04103888e+05 
     4610    4611    1       1.09620000e-01   2.88905200e+05 
     4610    4612    1       1.09620000e-01   2.88905200e+05 
     4610    4613    1       1.09620000e-01   2.88905200e+05 
     4614    4615    1       1.09470000e-01   2.90754528e+05 
     4614    4616    1       1.54250000e-01   1.87443200e+05 
     4616    4617    1       1.09540000e-01   2.89892624e+05 
     4616    4618    1       1.54830000e-01   1.84179680e+05 
     4618    4619    1       1.09540000e-01   2.89892624e+05 
     4618    4620    1       1.09540000e-01   2.89892624e+05 
     4621    4622    1       1.39860000e-01   2.96436400e+05 
     4622    4623    1       1.08600000e-01   3.01825392e+05 
     4624    4625    1       1.09620000e-01   2.88905200e+05 
     4624    4626    1       1.09620000e-01   2.88905200e+05 
     4624    4627    1       1.09620000e-01   2.88905200e+05 
     4624    4628    1       1.53720000e-01   1.90489152e+05 
     4628    4629    1       1.53720000e-01   1.90489152e+05 
     4628    4633    1       1.51510000e-01   2.03844480e+05 
     4628    4657    1       1.51510000e-01   2.03844480e+05 
     4629    4630    1       1.09620000e-01   2.88905200e+05 
     4629    4631    1       1.09620000e-01   2.88905200e+05 
     4629    4632    1       1.09620000e-01   2.88905200e+05 
     4633    4634    1       1.40560000e-01   2.89591376e+05 
     4633    4654    1       1.39860000e-01   2.96436400e+05 
     4634    4635    1       1.40560000e-01   2.89591376e+05 
     4634    4656    1       1.48290000e-01   2.25408816e+05 
     4635    4636    1       1.08600000e-01   3.01825392e+05 
     4635    4637    1       1.39860000e-01   2.96436400e+05 
     4637    4638    1       1.51590000e-01   2.03342400e+05 
     4637    4653    1       1.39860000e-01   2.96436400e+05 
     4638    4639    1       1.09470000e-01   2.90754528e+05 
     4638    4640    1       1.55780000e-01   1.78983152e+05 
     4638    4648    1       1.54250000e-01   1.87443200e+05 
     4640    4641    1       1.09470000e-01   2.90754528e+05 
     4640    4642    1       1.54250000e-01   1.87443200e+05 
     4640    4653    1       1.51590000e-01   2.03342400e+05 
     4642    4643    1       1.09540000e-01   2.89892624e+05 
     4642    4644    1       1.54250000e-01   1.87443200e+05 
     4642    4650    1       1.54830000e-01   1.84179680e+05 
     4644    4645    1       1.09470000e-01   2.90754528e+05 
     4644    4646    1       1.55780000e-01   1.78983152e+05 
     4646    4647    1       1.09470000e-01   2.90754528e+05 
     4648    4646    1       1.54250000e-01   1.87443200e+05 
     4648    4649    1       1.09540000e-01   2.89892624e+05 
     4648    4650    1       1.54830000e-01   1.84179680e+05 
     4650    4651    1       1.09540000e-01   2.89892624e+05 
     4650    4652    1       1.09540000e-01   2.89892624e+05 
     4653    4654    1       1.39860000e-01   2.96436400e+05 
     4654    4655    1       1.08600000e-01   3.01825392e+05 
     4656    4657    1       1.40560000e-01   2.89591376e+05 
     4656    4691    1       1.40560000e-01   2.89591376e+05 
     4657    4658    1       1.39860000e-01   2.96436400e+05 
     4658    4659    1       1.08600000e-01   3.01825392e+05 
     4658    4660    1       1.39860000e-01   2.96436400e+05 
     4660    4661    1       1.51590000e-01   2.03342400e+05 
     4660    4690    1       1.39860000e-01   2.96436400e+05 
     4661    4662    1       1.09470000e-01   2.90754528e+05 
     4661    4663    1       1.55780000e-01   1.78983152e+05 
     4661    4685    1       1.54250000e-01   1.87443200e+05 
     4663    4664    1       1.09470000e-01   2.90754528e+05 
     4663    4665    1       1.54250000e-01   1.87443200e+05 
     4663    4690    1       1.51590000e-01   2.03342400e+05 
     4665    4666    1       1.09540000e-01   2.89892624e+05 
     4665    4667    1       1.54250000e-01   1.87443200e+05 
     4665    4687    1       1.54830000e-01   1.84179680e+05 
     4667    4668    1       1.09470000e-01   2.90754528e+05 
     4667    4669    1       1.51590000e-01   2.03342400e+05 
     4667    4683    1       1.55780000e-01   1.78983152e+05 
     4669    4670    1       1.39860000e-01   2.96436400e+05 
     4669    4678    1       1.39860000e-01   2.96436400e+05 
     4670    4671    1       1.39860000e-01   2.96436400e+05 
     4670    4683    1       1.51590000e-01   2.03342400e+05 
     4671    4672    1       1.51470000e-01   2.04103888e+05 
     4671    4676    1       1.39860000e-01   2.96436400e+05 
     4672    4673    1       1.09620000e-01   2.88905200e+05 
     4672    4674    1       1.09620000e-01   2.88905200e+05 
     4672    4675    1       1.09620000e-01   2.88905200e+05 
     4676    1263    1       1.51590000e-01   2.03342400e+05 
     4676    4677    1       1.39860000e-01   2.96436400e+05 
     4677    1265    1       1.51590000e-01   2.03342400e+05 
     4677    4678    1       1.39860000e-01   2.96436400e+05 
     4678    4679    1       1.51470000e-01   2.04103888e+05 
     4679    4680    1       1.09620000e-01   2.88905200e+05 
     4679    4681    1       1.09620000e-01   2.88905200e+05 
     4679    4682    1       1.09620000e-01   2.88905200e+05 
     4683    4684    1       1.09470000e-01   2.90754528e+05 
     4683    4685    1       1.54250000e-01   1.87443200e+05 
     4685    4686    1       1.09540000e-01   2.89892624e+05 
     4685    4687    1       1.54830000e-01   1.84179680e+05 
     4687    4688    1       1.09540000e-01   2.89892624e+05 
     4687    4689    1       1.09540000e-01   2.89892624e+05 
     4690    4691    1       1.39860000e-01   2.96436400e+05 
     4691    4692    1       1.08600000e-01   3.01825392e+05 
     4693    4694    1       1.09620000e-01   2.88905200e+05 
     4693    4695    1       1.09620000e-01   2.88905200e+05 
     4693    4696    1       1.09620000e-01   2.88905200e+05 
     4693    4697    1       1.53720000e-01   1.90489152e+05 
     4697    4698    1       1.53720000e-01   1.90489152e+05 
     4697    4702    1       1.51510000e-01   2.03844480e+05 
     4697    4726    1       1.51510000e-01   2.03844480e+05 
     4698    4699    1       1.09620000e-01   2.88905200e+05 
     4698    4700    1       1.09620000e-01   2.88905200e+05 
     4698    4701    1       1.09620000e-01   2.88905200e+05 
     4702    4703    1       1.40560000e-01   2.89591376e+05 
     4702    4723    1       1.39860000e-01   2.96436400e+05 
     4703    4704    1       1.40560000e-01   2.89591376e+05 
     4703    4725    1       1.48290000e-01   2.25408816e+05 
     4704    4705    1       1.08600000e-01   3.01825392e+05 
     4704    4706    1       1.39860000e-01   2.96436400e+05 
     4706    4707    1       1.51590000e-01   2.03342400e+05 
     4706    4722    1       1.39860000e-01   2.96436400e+05 
     4707    4708    1       1.09470000e-01   2.90754528e+05 
     4707    4709    1       1.55780000e-01   1.78983152e+05 
     4707    4717    1       1.54250000e-01   1.87443200e+05 
     4709    4710    1       1.09470000e-01   2.90754528e+05 
     4709    4711    1       1.54250000e-01   1.87443200e+05 
     4709    4722    1       1.51590000e-01   2.03342400e+05 
     4711    4712    1       1.09540000e-01   2.89892624e+05 
     4711    4713    1       1.54250000e-01   1.87443200e+05 
     4711    4719    1       1.54830000e-01   1.84179680e+05 
     4713    4714    1       1.09470000e-01   2.90754528e+05 
     4713    4715    1       1.55780000e-01   1.78983152e+05 
     4715    4716    1       1.09470000e-01   2.90754528e+05 
     4717    4715    1       1.54250000e-01   1.87443200e+05 
     4717    4718    1       1.09540000e-01   2.89892624e+05 
     4717    4719    1       1.54830000e-01   1.84179680e+05 
     4719    4720    1       1.09540000e-01   2.89892624e+05 
     4719    4721    1       1.09540000e-01   2.89892624e+05 
     4722    4723    1       1.39860000e-01   2.96436400e+05 
     4723    4724    1       1.08600000e-01   3.01825392e+05 
     4725    4726    1       1.40560000e-01   2.89591376e+05 
     4725    4760    1       1.40560000e-01   2.89591376e+05 
     4726    4727    1       1.39860000e-01   2.96436400e+05 
     4727    4728    1       1.08600000e-01   3.01825392e+05 
     4727    4729    1       1.39860000e-01   2.96436400e+05 
     4729    4730    1       1.51590000e-01   2.03342400e+05 
     4729    4759    1       1.39860000e-01   2.96436400e+05 
     4730    4731    1       1.09470000e-01   2.90754528e+05 
     4730    4732    1       1.55780000e-01   1.78983152e+05 
     4730    4754    1       1.54250000e-01   1.87443200e+05 
     4732    4733    1       1.09470000e-01   2.90754528e+05 
     4732    4734    1       1.54250000e-01   1.87443200e+05 
     4732    4759    1       1.51590000e-01   2.03342400e+05 
     4734    4735    1       1.09540000e-01   2.89892624e+05 
     4734    4736    1       1.54250000e-01   1.87443200e+05 
     4734    4756    1       1.54830000e-01   1.84179680e+05 
     4736    4737    1       1.09470000e-01   2.90754528e+05 
     4736    4738    1       1.51590000e-01   2.03342400e+05 
     4736    4752    1       1.55780000e-01   1.78983152e+05 
     4738    4739    1       1.39860000e-01   2.96436400e+05 
     4738    4747    1       1.39860000e-01   2.96436400e+05 
     4739    4740    1       1.39860000e-01   2.96436400e+05 
     4739    4752    1       1.51590000e-01   2.03342400e+05 
     4740    4741    1       1.51470000e-01   2.04103888e+05 
     4740    4745    1       1.39860000e-01   2.96436400e+05 
     4741    4742    1       1.09620000e-01   2.88905200e+05 
     4741    4743    1       1.09620000e-01   2.88905200e+05 
     4741    4744    1       1.09620000e-01   2.88905200e+05 
     4745    4746    1       1.39860000e-01   2.96436400e+05 
     4745    5543    1       1.51590000e-01   2.03342400e+05 
     4746    4747    1       1.39860000e-01   2.96436400e+05 
     4746    5541    1       1.51590000e-01   2.03342400e+05 
     4747    4748    1       1.51470000e-01   2.04103888e+05 
     4748    4749    1       1.09620000e-01   2.88905200e+05 
     4748    4750    1       1.09620000e-01   2.88905200e+05 
     4748    4751    1       1.09620000e-01   2.88905200e+05 
     4752    4753    1       1.09470000e-01   2.90754528e+05 
     4752    4754    1       1.54250000e-01   1.87443200e+05 
     4754    4755    1       1.09540000e-01   2.89892624e+05 
     4754    4756    1       1.54830000e-01   1.84179680e+05 
     4756    4757    1       1.09540000e-01   2.89892624e+05 
     4756    4758    1       1.09540000e-01   2.89892624e+05 
     4759    4760    1       1.39860000e-01   2.96436400e+05 
     4760    4761    1       1.08600000e-01   3.01825392e+05 
     4762    4763    1       1.09620000e-01   2.88905200e+05 
     4762    4764    1       1.09620000e-01   2.88905200e+05 
     4762    4765    1       1.09620000e-01   2.88905200e+05 
     4762    4766    1       1.53720000e-01   1.90489152e+05 
     4766    4767    1       1.53720000e-01   1.90489152e+05 
     4766    4771    1       1.51510000e-01   2.03844480e+05 
     4766    4795    1       1.51510000e-01   2.03844480e+05 
     4767    4768    1       1.09620000e-01   2.88905200e+05 
     4767    4769    1       1.09620000e-01   2.88905200e+05 
     4767    4770    1       1.09620000e-01   2.88905200e+05 
     4771    4772    1       1.40560000e-01   2.89591376e+05 
     4771    4792    1       1.39860000e-01   2.96436400e+05 
     4772    4773    1       1.40560000e-01   2.89591376e+05 
     4772    4794    1       1.48290000e-01   2.25408816e+05 
     4773    4774    1       1.08600000e-01   3.01825392e+05 
     4773    4775    1       1.39860000e-01   2.96436400e+05 
     4775    4776    1       1.51590000e-01   2.03342400e+05 
     4775    4791    1       1.39860000e-01   2.96436400e+05 
     4776    4777    1       1.09470000e-01   2.90754528e+05 
     4776    4778    1       1.55780000e-01   1.78983152e+05 
     4776    4786    1       1.54250000e-01   1.87443200e+05 
     4778    4779    1       1.09470000e-01   2.90754528e+05 
     4778    4780    1       1.54250000e-01   1.87443200e+05 
     4778    4791    1       1.51590000e-01   2.03342400e+05 
     4780    4781    1       1.09540000e-01   2.89892624e+05 
     4780    4782    1       1.54250000e-01   1.87443200e+05 
     4780    4788    1       1.54830000e-01   1.84179680e+05 
     4782    4783    1       1.09470000e-01   2.90754528e+05 
     4782    4784    1       1.55780000e-01   1.78983152e+05 
     4784    4785    1       1.09470000e-01   2.90754528e+05 
     4786    4784    1       1.54250000e-01   1.87443200e+05 
     4786    4787    1       1.09540000e-01   2.89892624e+05 
     4786    4788    1       1.54830000e-01   1.84179680e+05 
     4788    4789    1       1.09540000e-01   2.89892624e+05 
     4788    4790    1       1.09540000e-01   2.89892624e+05 
     4791    4792    1       1.39860000e-01   2.96436400e+05 
     4792    4793    1       1.08600000e-01   3.01825392e+05 
     4794    4795    1       1.40560000e-01   2.89591376e+05 
     4794    4829    1       1.40560000e-01   2.89591376e+05 
     4795    4796    1       1.39860000e-01   2.96436400e+05 
     4796    4797    1       1.08600000e-01   3.01825392e+05 
     4796    4798    1       1.39860000e-01   2.96436400e+05 
     4798    4799    1       1.51590000e-01   2.03342400e+05 
     4798    4828    1       1.39860000e-01   2.96436400e+05 
     4799    4800    1       1.09470000e-01   2.90754528e+05 
     4799    4801    1       1.55780000e-01   1.78983152e+05 
     4799    4823    1       1.54250000e-01   1.87443200e+05 
     4801    4802    1       1.09470000e-01   2.90754528e+05 
     4801    4803    1       1.54250000e-01   1.87443200e+05 
     4801    4828    1       1.51590000e-01   2.03342400e+05 
     4803    4804    1       1.09540000e-01   2.89892624e+05 
     4803    4805    1       1.54250000e-01   1.87443200e+05 
     4803    4825    1       1.54830000e-01   1.84179680e+05 
     4805    4806    1       1.09470000e-01   2.90754528e+05 
     4805    4807    1       1.51590000e-01   2.03342400e+05 
     4805    4821    1       1.55780000e-01   1.78983152e+05 
     4807    4808    1       1.39860000e-01   2.96436400e+05 
     4807    4816    1       1.39860000e-01   2.96436400e+05 
     4808    4809    1       1.39860000e-01   2.96436400e+05 
     4808    4821    1       1.51590000e-01   2.03342400e+05 
     4809    4810    1       1.51470000e-01   2.04103888e+05 
     4809    4814    1       1.39860000e-01   2.96436400e+05 
     4810    4811    1       1.09620000e-01   2.88905200e+05 
     4810    4812    1       1.09620000e-01   2.88905200e+05 
     4810    4813    1       1.09620000e-01   2.88905200e+05 
     4814    4815    1       1.39860000e-01   2.96436400e+05 
     4814    6785    1       1.51590000e-01   2.03342400e+05 
     4815    4816    1       1.39860000e-01   2.96436400e+05 
     4815    6783    1       1.51590000e-01   2.03342400e+05 
     4816    4817    1       1.51470000e-01   2.04103888e+05 
     4817    4818    1       1.09620000e-01   2.88905200e+05 
     4817    4819    1       1.09620000e-01   2.88905200e+05 
     4817    4820    1       1.09620000e-01   2.88905200e+05 
     4821    4822    1       1.09470000e-01   2.90754528e+05 
     4821    4823    1       1.54250000e-01   1.87443200e+05 
     4823    4824    1       1.09540000e-01   2.89892624e+05 
     4823    4825    1       1.54830000e-01   1.84179680e+05 
     4825    4826    1       1.09540000e-01   2.89892624e+05 
     4825    4827    1       1.09540000e-01   2.89892624e+05 
     4828    4829    1       1.39860000e-01   2.96436400e+05 
     4829    4830    1       1.08600000e-01   3.01825392e+05 
     4831    4832    1       1.09620000e-01   2.88905200e+05 
     4831    4833    1       1.09620000e-01   2.88905200e+05 
     4831    4834    1       1.09620000e-01   2.88905200e+05 
     4831    4835    1       1.53720000e-01   1.90489152e+05 
     4835    4836    1       1.53720000e-01   1.90489152e+05 
     4835    4840    1       1.51510000e-01   2.03844480e+05 
     4835    4864    1       1.51510000e-01   2.03844480e+05 
     4836    4837    1       1.09620000e-01   2.88905200e+05 
     4836    4838    1       1.09620000e-01   2.88905200e+05 
     4836    4839    1       1.09620000e-01   2.88905200e+05 
     4840    4841    1       1.40560000e-01   2.89591376e+05 
     4840    4861    1       1.39860000e-01   2.96436400e+05 
     4841    4842    1       1.40560000e-01   2.89591376e+05 
     4841    4863    1       1.48290000e-01   2.25408816e+05 
     4842    4843    1       1.08600000e-01   3.01825392e+05 
     4842    4844    1       1.39860000e-01   2.96436400e+05 
     4844    4845    1       1.51590000e-01   2.03342400e+05 
     4844    4860    1       1.39860000e-01   2.96436400e+05 
     4845    4846    1       1.09470000e-01   2.90754528e+05 
     4845    4847    1       1.55780000e-01   1.78983152e+05 
     4845    4855    1       1.54250000e-01   1.87443200e+05 
     4847    4848    1       1.09470000e-01   2.90754528e+05 
     4847    4849    1       1.54250000e-01   1.87443200e+05 
     4847    4860    1       1.51590000e-01   2.03342400e+05 
     4849    4850    1       1.09540000e-01   2.89892624e+05 
     4849    4851    1       1.54250000e-01   1.87443200e+05 
     4849    4857    1       1.54830000e-01   1.84179680e+05 
     4851    4852    1       1.09470000e-01   2.90754528e+05 
     4851    4853    1       1.55780000e-01   1.78983152e+05 
     4853    4854    1       1.09470000e-01   2.90754528e+05 
     4855    4853    1       1.54250000e-01   1.87443200e+05 
     4855    4856    1       1.09540000e-01   2.89892624e+05 
     4855    4857    1       1.54830000e-01   1.84179680e+05 
     4857    4858    1       1.09540000e-01   2.89892624e+05 
     4857    4859    1       1.09540000e-01   2.89892624e+05 
     4860    4861    1       1.39860000e-01   2.96436400e+05 
     4861    4862    1       1.08600000e-01   3.01825392e+05 
     4863    4864    1       1.40560000e-01   2.89591376e+05 
     4863    4898    1       1.40560000e-01   2.89591376e+05 
     4864    4865    1       1.39860000e-01   2.96436400e+05 
     4865    4866    1       1.08600000e-01   3.01825392e+05 
     4865    4867    1       1.39860000e-01   2.96436400e+05 
     4867    4868    1       1.51590000e-01   2.03342400e+05 
     4867    4897    1       1.39860000e-01   2.96436400e+05 
     4868    4869    1       1.09470000e-01   2.90754528e+05 
     4868    4870    1       1.55780000e-01   1.78983152e+05 
     4868    4892    1       1.54250000e-01   1.87443200e+05 
     4870    4871    1       1.09470000e-01   2.90754528e+05 
     4870    4872    1       1.54250000e-01   1.87443200e+05 
     4870    4897    1       1.51590000e-01   2.03342400e+05 
     4872    4873    1       1.09540000e-01   2.89892624e+05 
     4872    4874    1       1.54250000e-01   1.87443200e+05 
     4872    4894    1       1.54830000e-01   1.84179680e+05 
     4874    4875    1       1.09470000e-01   2.90754528e+05 
     4874    4876    1       1.51590000e-01   2.03342400e+05 
     4874    4890    1       1.55780000e-01   1.78983152e+05 
     4876    4877    1       1.39860000e-01   2.96436400e+05 
     4876    4885    1       1.39860000e-01   2.96436400e+05 
     4877    4878    1       1.39860000e-01   2.96436400e+05 
     4877    4890    1       1.51590000e-01   2.03342400e+05 
     4878    4879    1       1.51470000e-01   2.04103888e+05 
     4878    4883    1       1.39860000e-01   2.96436400e+05 
     4879    4880    1       1.09620000e-01   2.88905200e+05 
     4879    4881    1       1.09620000e-01   2.88905200e+05 
     4879    4882    1       1.09620000e-01   2.88905200e+05 
     4883    1125    1       1.51590000e-01   2.03342400e+05 
     4883    4884    1       1.39860000e-01   2.96436400e+05 
     4884    1127    1       1.51590000e-01   2.03342400e+05 
     4884    4885    1       1.39860000e-01   2.96436400e+05 
     4885    4886    1       1.51470000e-01   2.04103888e+05 
     4886    4887    1       1.09620000e-01   2.88905200e+05 
     4886    4888    1       1.09620000e-01   2.88905200e+05 
     4886    4889    1       1.09620000e-01   2.88905200e+05 
     4890    4891    1       1.09470000e-01   2.90754528e+05 
     4890    4892    1       1.54250000e-01   1.87443200e+05 
     4892    4893    1       1.09540000e-01   2.89892624e+05 
     4892    4894    1       1.54830000e-01   1.84179680e+05 
     4894    4895    1       1.09540000e-01   2.89892624e+05 
     4894    4896    1       1.09540000e-01   2.89892624e+05 
     4897    4898    1       1.39860000e-01   2.96436400e+05 
     4898    4899    1       1.08600000e-01   3.01825392e+05 
     4900    4901    1       1.09620000e-01   2.88905200e+05 
     4900    4902    1       1.09620000e-01   2.88905200e+05 
     4900    4903    1       1.09620000e-01   2.88905200e+05 
     4900    4904    1       1.53720000e-01   1.90489152e+05 
     4904    4905    1       1.53720000e-01   1.90489152e+05 
     4904    4909    1       1.51510000e-01   2.03844480e+05 
     4904    4933    1       1.51510000e-01   2.03844480e+05 
     4905    4906    1       1.09620000e-01   2.88905200e+05 
     4905    4907    1       1.09620000e-01   2.88905200e+05 
     4905    4908    1       1.09620000e-01   2.88905200e+05 
     4909    4910    1       1.40560000e-01   2.89591376e+05 
     4909    4930    1       1.39860000e-01   2.96436400e+05 
     4910    4911    1       1.40560000e-01   2.89591376e+05 
     4910    4932    1       1.48290000e-01   2.25408816e+05 
     4911    4912    1       1.08600000e-01   3.01825392e+05 
     4911    4913    1       1.39860000e-01   2.96436400e+05 
     4913    4914    1       1.51590000e-01   2.03342400e+05 
     4913    4929    1       1.39860000e-01   2.96436400e+05 
     4914    4915    1       1.09470000e-01   2.90754528e+05 
     4914    4916    1       1.55780000e-01   1.78983152e+05 
     4914    4924    1       1.54250000e-01   1.87443200e+05 
     4916    4917    1       1.09470000e-01   2.90754528e+05 
     4916    4918    1       1.54250000e-01   1.87443200e+05 
     4916    4929    1       1.51590000e-01   2.03342400e+05 
     4918    4919    1       1.09540000e-01   2.89892624e+05 
     4918    4920    1       1.54250000e-01   1.87443200e+05 
     4918    4926    1       1.54830000e-01   1.84179680e+05 
     4920    4921    1       1.09470000e-01   2.90754528e+05 
     4920    4922    1       1.55780000e-01   1.78983152e+05 
     4922    4923    1       1.09470000e-01   2.90754528e+05 
     4924    4922    1       1.54250000e-01   1.87443200e+05 
     4924    4925    1       1.09540000e-01   2.89892624e+05 
     4924    4926    1       1.54830000e-01   1.84179680e+05 
     4926    4927    1       1.09540000e-01   2.89892624e+05 
     4926    4928    1       1.09540000e-01   2.89892624e+05 
     4929    4930    1       1.39860000e-01   2.96436400e+05 
     4930    4931    1       1.08600000e-01   3.01825392e+05 
     4932    4933    1       1.40560000e-01   2.89591376e+05 
     4932    4967    1       1.40560000e-01   2.89591376e+05 
     4933    4934    1       1.39860000e-01   2.96436400e+05 
     4934    4935    1       1.08600000e-01   3.01825392e+05 
     4934    4936    1       1.39860000e-01   2.96436400e+05 
     4936    4937    1       1.51590000e-01   2.03342400e+05 
     4936    4966    1       1.39860000e-01   2.96436400e+05 
     4937    4938    1       1.09470000e-01   2.90754528e+05 
     4937    4939    1       1.55780000e-01   1.78983152e+05 
     4937    4961    1       1.54250000e-01   1.87443200e+05 
     4939    4940    1       1.09470000e-01   2.90754528e+05 
     4939    4941    1       1.54250000e-01   1.87443200e+05 
     4939    4966    1       1.51590000e-01   2.03342400e+05 
     4941    4942    1       1.09540000e-01   2.89892624e+05 
     4941    4943    1       1.54250000e-01   1.87443200e+05 
     4941    4963    1       1.54830000e-01   1.84179680e+05 
     4943    4944    1       1.09470000e-01   2.90754528e+05 
     4943    4945    1       1.51590000e-01   2.03342400e+05 
     4943    4959    1       1.55780000e-01   1.78983152e+05 
     4945    4946    1       1.39860000e-01   2.96436400e+05 
     4945    4954    1       1.39860000e-01   2.96436400e+05 
     4946    4947    1       1.39860000e-01   2.96436400e+05 
     4946    4959    1       1.51590000e-01   2.03342400e+05 
     4947    4948    1       1.51470000e-01   2.04103888e+05 
     4947    4952    1       1.39860000e-01   2.96436400e+05 
     4948    4949    1       1.09620000e-01   2.88905200e+05 
     4948    4950    1       1.09620000e-01   2.88905200e+05 
     4948    4951    1       1.09620000e-01   2.88905200e+05 
     4952    4577    1       1.51590000e-01   2.03342400e+05 
     4952    4953    1       1.39860000e-01   2.96436400e+05 
     4953    4575    1       1.51590000e-01   2.03342400e+05 
     4953    4954    1       1.39860000e-01   2.96436400e+05 
     4954    4955    1       1.51470000e-01   2.04103888e+05 
     4955    4956    1       1.09620000e-01   2.88905200e+05 
     4955    4957    1       1.09620000e-01   2.88905200e+05 
     4955    4958    1       1.09620000e-01   2.88905200e+05 
     4959    4960    1       1.09470000e-01   2.90754528e+05 
     4959    4961    1       1.54250000e-01   1.87443200e+05 
     4961    4962    1       1.09540000e-01   2.89892624e+05 
     4961    4963    1       1.54830000e-01   1.84179680e+05 
     4963    4964    1       1.09540000e-01   2.89892624e+05 
     4963    4965    1       1.09540000e-01   2.89892624e+05 
     4966    4967    1       1.39860000e-01   2.96436400e+05 
     4967    4968    1       1.08600000e-01   3.01825392e+05 
     4969    4970    1       1.09620000e-01   2.88905200e+05 
     4969    4971    1       1.09620000e-01   2.88905200e+05 
     4969    4972    1       1.09620000e-01   2.88905200e+05 
     4969    4973    1       1.53720000e-01   1.90489152e+05 
     4973    4974    1       1.53720000e-01   1.90489152e+05 
     4973    4978    1       1.51510000e-01   2.03844480e+05 
     4973    5002    1       1.51510000e-01   2.03844480e+05 
     4974    4975    1       1.09620000e-01   2.88905200e+05 
     4974    4976    1       1.09620000e-01   2.88905200e+05 
     4974    4977    1       1.09620000e-01   2.88905200e+05 
     4978    4979    1       1.40560000e-01   2.89591376e+05 
     4978    4999    1       1.39860000e-01   2.96436400e+05 
     4979    4980    1       1.40560000e-01   2.89591376e+05 
     4979    5001    1       1.48290000e-01   2.25408816e+05 
     4980    4981    1       1.08600000e-01   3.01825392e+05 
     4980    4982    1       1.39860000e-01   2.96436400e+05 
     4982    4983    1       1.51590000e-01   2.03342400e+05 
     4982    4998    1       1.39860000e-01   2.96436400e+05 
     4983    4984    1       1.09470000e-01   2.90754528e+05 
     4983    4985    1       1.55780000e-01   1.78983152e+05 
     4983    4993    1       1.54250000e-01   1.87443200e+05 
     4985    4986    1       1.09470000e-01   2.90754528e+05 
     4985    4987    1       1.54250000e-01   1.87443200e+05 
     4985    4998    1       1.51590000e-01   2.03342400e+05 
     4987    4988    1       1.09540000e-01   2.89892624e+05 
     4987    4989    1       1.54250000e-01   1.87443200e+05 
     4987    4995    1       1.54830000e-01   1.84179680e+05 
     4989    4990    1       1.09470000e-01   2.90754528e+05 
     4989    4991    1       1.55780000e-01   1.78983152e+05 
     4991    4992    1       1.09470000e-01   2.90754528e+05 
     4993    4991    1       1.54250000e-01   1.87443200e+05 
     4993    4994    1       1.09540000e-01   2.89892624e+05 
     4993    4995    1       1.54830000e-01   1.84179680e+05 
     4995    4996    1       1.09540000e-01   2.89892624e+05 
     4995    4997    1       1.09540000e-01   2.89892624e+05 
     4998    4999    1       1.39860000e-01   2.96436400e+05 
     4999    5000    1       1.08600000e-01   3.01825392e+05 
     5001    5002    1       1.40560000e-01   2.89591376e+05 
     5001    5036    1       1.40560000e-01   2.89591376e+05 
     5002    5003    1       1.39860000e-01   2.96436400e+05 
     5003    5004    1       1.08600000e-01   3.01825392e+05 
     5003    5005    1       1.39860000e-01   2.96436400e+05 
     5005    5006    1       1.51590000e-01   2.03342400e+05 
     5005    5035    1       1.39860000e-01   2.96436400e+05 
     5006    5007    1       1.09470000e-01   2.90754528e+05 
     5006    5008    1       1.55780000e-01   1.78983152e+05 
     5006    5030    1       1.54250000e-01   1.87443200e+05 
     5008    5009    1       1.09470000e-01   2.90754528e+05 
     5008    5010    1       1.54250000e-01   1.87443200e+05 
     5008    5035    1       1.51590000e-01   2.03342400e+05 
     5010    5011    1       1.09540000e-01   2.89892624e+05 
     5010    5012    1       1.54250000e-01   1.87443200e+05 
     5010    5032    1       1.54830000e-01   1.84179680e+05 
     5012    5013    1       1.09470000e-01   2.90754528e+05 
     5012    5014    1       1.51590000e-01   2.03342400e+05 
     5012    5028    1       1.55780000e-01   1.78983152e+05 
     5014    5015    1       1.39860000e-01   2.96436400e+05 
     5014    5023    1       1.39860000e-01   2.96436400e+05 
     5015    5016    1       1.39860000e-01   2.96436400e+05 
     5015    5028    1       1.51590000e-01   2.03342400e+05 
     5016    5017    1       1.51470000e-01   2.04103888e+05 
     5016    5021    1       1.39860000e-01   2.96436400e+05 
     5017    5018    1       1.09620000e-01   2.88905200e+05 
     5017    5019    1       1.09620000e-01   2.88905200e+05 
     5017    5020    1       1.09620000e-01   2.88905200e+05 
     5021    2990    1       1.51590000e-01   2.03342400e+05 
     5021    5022    1       1.39860000e-01   2.96436400e+05 
     5022    2988    1       1.51590000e-01   2.03342400e+05 
     5022    5023    1       1.39860000e-01   2.96436400e+05 
     5023    5024    1       1.51470000e-01   2.04103888e+05 
     5024    5025    1       1.09620000e-01   2.88905200e+05 
     5024    5026    1       1.09620000e-01   2.88905200e+05 
     5024    5027    1       1.09620000e-01   2.88905200e+05 
     5028    5029    1       1.09470000e-01   2.90754528e+05 
     5028    5030    1       1.54250000e-01   1.87443200e+05 
     5030    5031    1       1.09540000e-01   2.89892624e+05 
     5030    5032    1       1.54830000e-01   1.84179680e+05 
     5032    5033    1       1.09540000e-01   2.89892624e+05 
     5032    5034    1       1.09540000e-01   2.89892624e+05 
     5035    5036    1       1.39860000e-01   2.96436400e+05 
     5036    5037    1       1.08600000e-01   3.01825392e+05 
     5038    5039    1       1.09620000e-01   2.88905200e+05 
     5038    5040    1       1.09620000e-01   2.88905200e+05 
     5038    5041    1       1.09620000e-01   2.88905200e+05 
     5038    5042    1       1.53720000e-01   1.90489152e+05 
     5042    5043    1       1.53720000e-01   1.90489152e+05 
     5042    5047    1       1.51510000e-01   2.03844480e+05 
     5042    5071    1       1.51510000e-01   2.03844480e+05 
     5043    5044    1       1.09620000e-01   2.88905200e+05 
     5043    5045    1       1.09620000e-01   2.88905200e+05 
     5043    5046    1       1.09620000e-01   2.88905200e+05 
     5047    5048    1       1.40560000e-01   2.89591376e+05 
     5047    5068    1       1.39860000e-01   2.96436400e+05 
     5048    5049    1       1.40560000e-01   2.89591376e+05 
     5048    5070    1       1.48290000e-01   2.25408816e+05 
     5049    5050    1       1.08600000e-01   3.01825392e+05 
     5049    5051    1       1.39860000e-01   2.96436400e+05 
     5051    5052    1       1.51590000e-01   2.03342400e+05 
     5051    5067    1       1.39860000e-01   2.96436400e+05 
     5052    5053    1       1.09470000e-01   2.90754528e+05 
     5052    5054    1       1.55780000e-01   1.78983152e+05 
     5052    5062    1       1.54250000e-01   1.87443200e+05 
     5054    5055    1       1.09470000e-01   2.90754528e+05 
     5054    5056    1       1.54250000e-01   1.87443200e+05 
     5054    5067    1       1.51590000e-01   2.03342400e+05 
     5056    5057    1       1.09540000e-01   2.89892624e+05 
     5056    5058    1       1.54250000e-01   1.87443200e+05 
     5056    5064    1       1.54830000e-01   1.84179680e+05 
     5058    5059    1       1.09470000e-01   2.90754528e+05 
     5058    5060    1       1.55780000e-01   1.78983152e+05 
     5060    5061    1       1.09470000e-01   2.90754528e+05 
     5062    5060    1       1.54250000e-01   1.87443200e+05 
     5062    5063    1       1.09540000e-01   2.89892624e+05 
     5062    5064    1       1.54830000e-01   1.84179680e+05 
     5064    5065    1       1.09540000e-01   2.89892624e+05 
     5064    5066    1       1.09540000e-01   2.89892624e+05 
     5067    5068    1       1.39860000e-01   2.96436400e+05 
     5068    5069    1       1.08600000e-01   3.01825392e+05 
     5070    5071    1       1.40560000e-01   2.89591376e+05 
     5070    5105    1       1.40560000e-01   2.89591376e+05 
     5071    5072    1       1.39860000e-01   2.96436400e+05 
     5072    5073    1       1.08600000e-01   3.01825392e+05 
     5072    5074    1       1.39860000e-01   2.96436400e+05 
     5074    5075    1       1.51590000e-01   2.03342400e+05 
     5074    5104    1       1.39860000e-01   2.96436400e+05 
     5075    5076    1       1.09470000e-01   2.90754528e+05 
     5075    5077    1       1.55780000e-01   1.78983152e+05 
     5075    5099    1       1.54250000e-01   1.87443200e+05 
     5077    5078    1       1.09470000e-01   2.90754528e+05 
     5077    5079    1       1.54250000e-01   1.87443200e+05 
     5077    5104    1       1.51590000e-01   2.03342400e+05 
     5079    5080    1       1.09540000e-01   2.89892624e+05 
     5079    5081    1       1.54250000e-01   1.87443200e+05 
     5079    5101    1       1.54830000e-01   1.84179680e+05 
     5081    5082    1       1.09470000e-01   2.90754528e+05 
     5081    5083    1       1.51590000e-01   2.03342400e+05 
     5081    5097    1       1.55780000e-01   1.78983152e+05 
     5083    5084    1       1.39860000e-01   2.96436400e+05 
     5083    5092    1       1.39860000e-01   2.96436400e+05 
     5084    5085    1       1.39860000e-01   2.96436400e+05 
     5084    5097    1       1.51590000e-01   2.03342400e+05 
     5085    5086    1       1.51470000e-01   2.04103888e+05 
     5085    5090    1       1.39860000e-01   2.96436400e+05 
     5086    5087    1       1.09620000e-01   2.88905200e+05 
     5086    5088    1       1.09620000e-01   2.88905200e+05 
     5086    5089    1       1.09620000e-01   2.88905200e+05 
     5090    2231    1       1.51590000e-01   2.03342400e+05 
     5090    5091    1       1.39860000e-01   2.96436400e+05 
     5091    2229    1       1.51590000e-01   2.03342400e+05 
     5091    5092    1       1.39860000e-01   2.96436400e+05 
     5092    5093    1       1.51470000e-01   2.04103888e+05 
     5093    5094    1       1.09620000e-01   2.88905200e+05 
     5093    5095    1       1.09620000e-01   2.88905200e+05 
     5093    5096    1       1.09620000e-01   2.88905200e+05 
     5097    5098    1       1.09470000e-01   2.90754528e+05 
     5097    5099    1       1.54250000e-01   1.87443200e+05 
     5099    5100    1       1.09540000e-01   2.89892624e+05 
     5099    5101    1       1.54830000e-01   1.84179680e+05 
     5101    5102    1       1.09540000e-01   2.89892624e+05 
     5101    5103    1       1.09540000e-01   2.89892624e+05 
     5104    5105    1       1.39860000e-01   2.96436400e+05 
     5105    5106    1       1.08600000e-01   3.01825392e+05 
     5107    5108    1       1.09620000e-01   2.88905200e+05 
     5107    5109    1       1.09620000e-01   2.88905200e+05 
     5107    5110    1       1.09620000e-01   2.88905200e+05 
     5107    5111    1       1.53720000e-01   1.90489152e+05 
     5111    5112    1       1.53720000e-01   1.90489152e+05 
     5111    5116    1       1.51510000e-01   2.03844480e+05 
     5111    5140    1       1.51510000e-01   2.03844480e+05 
     5112    5113    1       1.09620000e-01   2.88905200e+05 
     5112    5114    1       1.09620000e-01   2.88905200e+05 
     5112    5115    1       1.09620000e-01   2.88905200e+05 
     5116    5117    1       1.40560000e-01   2.89591376e+05 
     5116    5137    1       1.39860000e-01   2.96436400e+05 
     5117    5118    1       1.40560000e-01   2.89591376e+05 
     5117    5139    1       1.48290000e-01   2.25408816e+05 
     5118    5119    1       1.08600000e-01   3.01825392e+05 
     5118    5120    1       1.39860000e-01   2.96436400e+05 
     5120    5121    1       1.51590000e-01   2.03342400e+05 
     5120    5136    1       1.39860000e-01   2.96436400e+05 
     5121    5122    1       1.09470000e-01   2.90754528e+05 
     5121    5123    1       1.55780000e-01   1.78983152e+05 
     5121    5131    1       1.54250000e-01   1.87443200e+05 
     5123    5124    1       1.09470000e-01   2.90754528e+05 
     5123    5125    1       1.54250000e-01   1.87443200e+05 
     5123    5136    1       1.51590000e-01   2.03342400e+05 
     5125    5126    1       1.09540000e-01   2.89892624e+05 
     5125    5127    1       1.54250000e-01   1.87443200e+05 
     5125    5133    1       1.54830000e-01   1.84179680e+05 
     5127    5128    1       1.09470000e-01   2.90754528e+05 
     5127    5129    1       1.55780000e-01   1.78983152e+05 
     5129    5130    1       1.09470000e-01   2.90754528e+05 
     5131    5129    1       1.54250000e-01   1.87443200e+05 
     5131    5132    1       1.09540000e-01   2.89892624e+05 
     5131    5133    1       1.54830000e-01   1.84179680e+05 
     5133    5134    1       1.09540000e-01   2.89892624e+05 
     5133    5135    1       1.09540000e-01   2.89892624e+05 
     5136    5137    1       1.39860000e-01   2.96436400e+05 
     5137    5138    1       1.08600000e-01   3.01825392e+05 
     5139    5140    1       1.40560000e-01   2.89591376e+05 
     5139    5174    1       1.40560000e-01   2.89591376e+05 
     5140    5141    1       1.39860000e-01   2.96436400e+05 
     5141    5142    1       1.08600000e-01   3.01825392e+05 
     5141    5143    1       1.39860000e-01   2.96436400e+05 
     5143    5144    1       1.51590000e-01   2.03342400e+05 
     5143    5173    1       1.39860000e-01   2.96436400e+05 
     5144    5145    1       1.09470000e-01   2.90754528e+05 
     5144    5146    1       1.55780000e-01   1.78983152e+05 
     5144    5168    1       1.54250000e-01   1.87443200e+05 
     5146    5147    1       1.09470000e-01   2.90754528e+05 
     5146    5148    1       1.54250000e-01   1.87443200e+05 
     5146    5173    1       1.51590000e-01   2.03342400e+05 
     5148    5149    1       1.09540000e-01   2.89892624e+05 
     5148    5150    1       1.54250000e-01   1.87443200e+05 
     5148    5170    1       1.54830000e-01   1.84179680e+05 
     5150    5151    1       1.09470000e-01   2.90754528e+05 
     5150    5152    1       1.51590000e-01   2.03342400e+05 
     5150    5166    1       1.55780000e-01   1.78983152e+05 
     5152    5153    1       1.39860000e-01   2.96436400e+05 
     5152    5161    1       1.39860000e-01   2.96436400e+05 
     5153    5154    1       1.39860000e-01   2.96436400e+05 
     5153    5166    1       1.51590000e-01   2.03342400e+05 
     5154    5155    1       1.51470000e-01   2.04103888e+05 
     5154    5159    1       1.39860000e-01   2.96436400e+05 
     5155    5156    1       1.09620000e-01   2.88905200e+05 
     5155    5157    1       1.09620000e-01   2.88905200e+05 
     5155    5158    1       1.09620000e-01   2.88905200e+05 
     5159    987     1       1.51590000e-01   2.03342400e+05 
     5159    5160    1       1.39860000e-01   2.96436400e+05 
     5160    989     1       1.51590000e-01   2.03342400e+05 
     5160    5161    1       1.39860000e-01   2.96436400e+05 
     5161    5162    1       1.51470000e-01   2.04103888e+05 
     5162    5163    1       1.09620000e-01   2.88905200e+05 
     5162    5164    1       1.09620000e-01   2.88905200e+05 
     5162    5165    1       1.09620000e-01   2.88905200e+05 
     5166    5167    1       1.09470000e-01   2.90754528e+05 
     5166    5168    1       1.54250000e-01   1.87443200e+05 
     5168    5169    1       1.09540000e-01   2.89892624e+05 
     5168    5170    1       1.54830000e-01   1.84179680e+05 
     5170    5171    1       1.09540000e-01   2.89892624e+05 
     5170    5172    1       1.09540000e-01   2.89892624e+05 
     5173    5174    1       1.39860000e-01   2.96436400e+05 
     5174    5175    1       1.08600000e-01   3.01825392e+05 
     5176    5177    1       1.09620000e-01   2.88905200e+05 
     5176    5178    1       1.09620000e-01   2.88905200e+05 
     5176    5179    1       1.09620000e-01   2.88905200e+05 
     5176    5180    1       1.53720000e-01   1.90489152e+05 
     5180    5181    1       1.53720000e-01   1.90489152e+05 
     5180    5185    1       1.51510000e-01   2.03844480e+05 
     5180    5209    1       1.51510000e-01   2.03844480e+05 
     5181    5182    1       1.09620000e-01   2.88905200e+05 
     5181    5183    1       1.09620000e-01   2.88905200e+05 
     5181    5184    1       1.09620000e-01   2.88905200e+05 
     5185    5186    1       1.40560000e-01   2.89591376e+05 
     5185    5206    1       1.39860000e-01   2.96436400e+05 
     5186    5187    1       1.40560000e-01   2.89591376e+05 
     5186    5208    1       1.48290000e-01   2.25408816e+05 
     5187    5188    1       1.08600000e-01   3.01825392e+05 
     5187    5189    1       1.39860000e-01   2.96436400e+05 
     5189    5190    1       1.51590000e-01   2.03342400e+05 
     5189    5205    1       1.39860000e-01   2.96436400e+05 
     5190    5191    1       1.09470000e-01   2.90754528e+05 
     5190    5192    1       1.55780000e-01   1.78983152e+05 
     5190    5200    1       1.54250000e-01   1.87443200e+05 
     5192    5193    1       1.09470000e-01   2.90754528e+05 
     5192    5194    1       1.54250000e-01   1.87443200e+05 
     5192    5205    1       1.51590000e-01   2.03342400e+05 
     5194    5195    1       1.09540000e-01   2.89892624e+05 
     5194    5196    1       1.54250000e-01   1.87443200e+05 
     5194    5202    1       1.54830000e-01   1.84179680e+05 
     5196    5197    1       1.09470000e-01   2.90754528e+05 
     5196    5198    1       1.55780000e-01   1.78983152e+05 
     5198    5199    1       1.09470000e-01   2.90754528e+05 
     5200    5198    1       1.54250000e-01   1.87443200e+05 
     5200    5201    1       1.09540000e-01   2.89892624e+05 
     5200    5202    1       1.54830000e-01   1.84179680e+05 
     5202    5203    1       1.09540000e-01   2.89892624e+05 
     5202    5204    1       1.09540000e-01   2.89892624e+05 
     5205    5206    1       1.39860000e-01   2.96436400e+05 
     5206    5207    1       1.08600000e-01   3.01825392e+05 
     5208    5209    1       1.40560000e-01   2.89591376e+05 
     5208    5243    1       1.40560000e-01   2.89591376e+05 
     5209    5210    1       1.39860000e-01   2.96436400e+05 
     5210    5211    1       1.08600000e-01   3.01825392e+05 
     5210    5212    1       1.39860000e-01   2.96436400e+05 
     5212    5213    1       1.51590000e-01   2.03342400e+05 
     5212    5242    1       1.39860000e-01   2.96436400e+05 
     5213    5214    1       1.09470000e-01   2.90754528e+05 
     5213    5215    1       1.55780000e-01   1.78983152e+05 
     5213    5237    1       1.54250000e-01   1.87443200e+05 
     5215    5216    1       1.09470000e-01   2.90754528e+05 
     5215    5217    1       1.54250000e-01   1.87443200e+05 
     5215    5242    1       1.51590000e-01   2.03342400e+05 
     5217    5218    1       1.09540000e-01   2.89892624e+05 
     5217    5219    1       1.54250000e-01   1.87443200e+05 
     5217    5239    1       1.54830000e-01   1.84179680e+05 
     5219    5220    1       1.09470000e-01   2.90754528e+05 
     5219    5221    1       1.51590000e-01   2.03342400e+05 
     5219    5235    1       1.55780000e-01   1.78983152e+05 
     5221    5222    1       1.39860000e-01   2.96436400e+05 
     5221    5230    1       1.39860000e-01   2.96436400e+05 
     5222    5223    1       1.39860000e-01   2.96436400e+05 
     5222    5235    1       1.51590000e-01   2.03342400e+05 
     5223    5224    1       1.51470000e-01   2.04103888e+05 
     5223    5228    1       1.39860000e-01   2.96436400e+05 
     5224    5225    1       1.09620000e-01   2.88905200e+05 
     5224    5226    1       1.09620000e-01   2.88905200e+05 
     5224    5227    1       1.09620000e-01   2.88905200e+05 
     5228    1539    1       1.51590000e-01   2.03342400e+05 
     5228    5229    1       1.39860000e-01   2.96436400e+05 
     5229    1541    1       1.51590000e-01   2.03342400e+05 
     5229    5230    1       1.39860000e-01   2.96436400e+05 
     5230    5231    1       1.51470000e-01   2.04103888e+05 
     5231    5232    1       1.09620000e-01   2.88905200e+05 
     5231    5233    1       1.09620000e-01   2.88905200e+05 
     5231    5234    1       1.09620000e-01   2.88905200e+05 
     5235    5236    1       1.09470000e-01   2.90754528e+05 
     5235    5237    1       1.54250000e-01   1.87443200e+05 
     5237    5238    1       1.09540000e-01   2.89892624e+05 
     5237    5239    1       1.54830000e-01   1.84179680e+05 
     5239    5240    1       1.09540000e-01   2.89892624e+05 
     5239    5241    1       1.09540000e-01   2.89892624e+05 
     5242    5243    1       1.39860000e-01   2.96436400e+05 
     5243    5244    1       1.08600000e-01   3.01825392e+05 
     5245    5246    1       1.09620000e-01   2.88905200e+05 
     5245    5247    1       1.09620000e-01   2.88905200e+05 
     5245    5248    1       1.09620000e-01   2.88905200e+05 
     5245    5249    1       1.53720000e-01   1.90489152e+05 
     5249    5250    1       1.53720000e-01   1.90489152e+05 
     5249    5254    1       1.51510000e-01   2.03844480e+05 
     5249    5278    1       1.51510000e-01   2.03844480e+05 
     5250    5251    1       1.09620000e-01   2.88905200e+05 
     5250    5252    1       1.09620000e-01   2.88905200e+05 
     5250    5253    1       1.09620000e-01   2.88905200e+05 
     5254    5255    1       1.40560000e-01   2.89591376e+05 
     5254    5275    1       1.39860000e-01   2.96436400e+05 
     5255    5256    1       1.40560000e-01   2.89591376e+05 
     5255    5277    1       1.48290000e-01   2.25408816e+05 
     5256    5257    1       1.08600000e-01   3.01825392e+05 
     5256    5258    1       1.39860000e-01   2.96436400e+05 
     5258    5259    1       1.51590000e-01   2.03342400e+05 
     5258    5274    1       1.39860000e-01   2.96436400e+05 
     5259    5260    1       1.09470000e-01   2.90754528e+05 
     5259    5261    1       1.55780000e-01   1.78983152e+05 
     5259    5269    1       1.54250000e-01   1.87443200e+05 
     5261    5262    1       1.09470000e-01   2.90754528e+05 
     5261    5263    1       1.54250000e-01   1.87443200e+05 
     5261    5274    1       1.51590000e-01   2.03342400e+05 
     5263    5264    1       1.09540000e-01   2.89892624e+05 
     5263    5265    1       1.54830000e-01   1.84179680e+05 
     5263    5271    1       1.54830000e-01   1.84179680e+05 
     5265    5266    1       1.09540000e-01   2.89892624e+05 
     5265    5267    1       1.54830000e-01   1.84179680e+05 
     5267    5268    1       1.09540000e-01   2.89892624e+05 
     5267    5269    1       1.54830000e-01   1.84179680e+05 
     5269    5270    1       1.09540000e-01   2.89892624e+05 
     5269    5271    1       1.54830000e-01   1.84179680e+05 
     5271    5272    1       1.09540000e-01   2.89892624e+05 
     5271    5273    1       1.09540000e-01   2.89892624e+05 
     5274    5275    1       1.39860000e-01   2.96436400e+05 
     5275    5276    1       1.08600000e-01   3.01825392e+05 
     5277    5278    1       1.40560000e-01   2.89591376e+05 
     5277    5312    1       1.40560000e-01   2.89591376e+05 
     5278    5279    1       1.39860000e-01   2.96436400e+05 
     5279    5280    1       1.08600000e-01   3.01825392e+05 
     5279    5281    1       1.39860000e-01   2.96436400e+05 
     5281    5282    1       1.51590000e-01   2.03342400e+05 
     5281    5311    1       1.39860000e-01   2.96436400e+05 
     5282    5283    1       1.09470000e-01   2.90754528e+05 
     5282    5284    1       1.55780000e-01   1.78983152e+05 
     5282    5306    1       1.54250000e-01   1.87443200e+05 
     5284    5285    1       1.09470000e-01   2.90754528e+05 
     5284    5286    1       1.54250000e-01   1.87443200e+05 
     5284    5311    1       1.51590000e-01   2.03342400e+05 
     5286    5287    1       1.09540000e-01   2.89892624e+05 
     5286    5288    1       1.54250000e-01   1.87443200e+05 
     5286    5308    1       1.54830000e-01   1.84179680e+05 
     5288    5289    1       1.09470000e-01   2.90754528e+05 
     5288    5290    1       1.51590000e-01   2.03342400e+05 
     5288    5304    1       1.55780000e-01   1.78983152e+05 
     5290    5291    1       1.39860000e-01   2.96436400e+05 
     5290    5299    1       1.39860000e-01   2.96436400e+05 
     5291    5292    1       1.39860000e-01   2.96436400e+05 
     5291    5304    1       1.51590000e-01   2.03342400e+05 
     5292    5293    1       1.51470000e-01   2.04103888e+05 
     5292    5297    1       1.39860000e-01   2.96436400e+05 
     5293    5294    1       1.09620000e-01   2.88905200e+05 
     5293    5295    1       1.09620000e-01   2.88905200e+05 
     5293    5296    1       1.09620000e-01   2.88905200e+05 
     5297    5298    1       1.39860000e-01   2.96436400e+05 
     5297    6852    1       1.51590000e-01   2.03342400e+05 
     5298    5299    1       1.39860000e-01   2.96436400e+05 
     5298    6854    1       1.51590000e-01   2.03342400e+05 
     5299    5300    1       1.51470000e-01   2.04103888e+05 
     5300    5301    1       1.09620000e-01   2.88905200e+05 
     5300    5302    1       1.09620000e-01   2.88905200e+05 
     5300    5303    1       1.09620000e-01   2.88905200e+05 
     5304    5305    1       1.09470000e-01   2.90754528e+05 
     5304    5306    1       1.54250000e-01   1.87443200e+05 
     5306    5307    1       1.09540000e-01   2.89892624e+05 
     5306    5308    1       1.54830000e-01   1.84179680e+05 
     5308    5309    1       1.09540000e-01   2.89892624e+05 
     5308    5310    1       1.09540000e-01   2.89892624e+05 
     5311    5312    1       1.39860000e-01   2.96436400e+05 
     5312    5313    1       1.08600000e-01   3.01825392e+05 
     5314    5315    1       1.09620000e-01   2.88905200e+05 
     5314    5316    1       1.09620000e-01   2.88905200e+05 
     5314    5317    1       1.09620000e-01   2.88905200e+05 
     5314    5318    1       1.53720000e-01   1.90489152e+05 
     5318    5319    1       1.53720000e-01   1.90489152e+05 
     5318    5323    1       1.51510000e-01   2.03844480e+05 
     5318    5347    1       1.51510000e-01   2.03844480e+05 
     5319    5320    1       1.09620000e-01   2.88905200e+05 
     5319    5321    1       1.09620000e-01   2.88905200e+05 
     5319    5322    1       1.09620000e-01   2.88905200e+05 
     5323    5324    1       1.40560000e-01   2.89591376e+05 
     5323    5344    1       1.39860000e-01   2.96436400e+05 
     5324    5325    1       1.40560000e-01   2.89591376e+05 
     5324    5346    1       1.48290000e-01   2.25408816e+05 
     5325    5326    1       1.08600000e-01   3.01825392e+05 
     5325    5327    1       1.39860000e-01   2.96436400e+05 
     5327    5328    1       1.51590000e-01   2.03342400e+05 
     5327    5343    1       1.39860000e-01   2.96436400e+05 
     5328    5329    1       1.09470000e-01   2.90754528e+05 
     5328    5330    1       1.55780000e-01   1.78983152e+05 
     5328    5338    1       1.54250000e-01   1.87443200e+05 
     5330    5331    1       1.09470000e-01   2.90754528e+05 
     5330    5332    1       1.54250000e-01   1.87443200e+05 
     5330    5343    1       1.51590000e-01   2.03342400e+05 
     5332    5333    1       1.09540000e-01   2.89892624e+05 
     5332    5334    1       1.54250000e-01   1.87443200e+05 
     5332    5340    1       1.54830000e-01   1.84179680e+05 
     5334    5335    1       1.09470000e-01   2.90754528e+05 
     5334    5336    1       1.55780000e-01   1.78983152e+05 
     5336    5337    1       1.09470000e-01   2.90754528e+05 
     5338    5336    1       1.54250000e-01   1.87443200e+05 
     5338    5339    1       1.09540000e-01   2.89892624e+05 
     5338    5340    1       1.54830000e-01   1.84179680e+05 
     5340    5341    1       1.09540000e-01   2.89892624e+05 
     5340    5342    1       1.09540000e-01   2.89892624e+05 
     5343    5344    1       1.39860000e-01   2.96436400e+05 
     5344    5345    1       1.08600000e-01   3.01825392e+05 
     5346    5347    1       1.40560000e-01   2.89591376e+05 
     5346    5381    1       1.40560000e-01   2.89591376e+05 
     5347    5348    1       1.39860000e-01   2.96436400e+05 
     5348    5349    1       1.08600000e-01   3.01825392e+05 
     5348    5350    1       1.39860000e-01   2.96436400e+05 
     5350    5351    1       1.51590000e-01   2.03342400e+05 
     5350    5380    1       1.39860000e-01   2.96436400e+05 
     5351    5352    1       1.09470000e-01   2.90754528e+05 
     5351    5353    1       1.55780000e-01   1.78983152e+05 
     5351    5375    1       1.54250000e-01   1.87443200e+05 
     5353    5354    1       1.09470000e-01   2.90754528e+05 
     5353    5355    1       1.54250000e-01   1.87443200e+05 
     5353    5380    1       1.51590000e-01   2.03342400e+05 
     5355    5356    1       1.09540000e-01   2.89892624e+05 
     5355    5357    1       1.54250000e-01   1.87443200e+05 
     5355    5377    1       1.54830000e-01   1.84179680e+05 
     5357    5358    1       1.09470000e-01   2.90754528e+05 
     5357    5359    1       1.51590000e-01   2.03342400e+05 
     5357    5373    1       1.55780000e-01   1.78983152e+05 
     5359    5360    1       1.39860000e-01   2.96436400e+05 
     5359    5368    1       1.39860000e-01   2.96436400e+05 
     5360    5361    1       1.39860000e-01   2.96436400e+05 
     5360    5373    1       1.51590000e-01   2.03342400e+05 
     5361    5362    1       1.51470000e-01   2.04103888e+05 
     5361    5366    1       1.39860000e-01   2.96436400e+05 
     5362    5363    1       1.09620000e-01   2.88905200e+05 
     5362    5364    1       1.09620000e-01   2.88905200e+05 
     5362    5365    1       1.09620000e-01   2.88905200e+05 
     5366    5367    1       1.39860000e-01   2.96436400e+05 
     5366    6714    1       1.51590000e-01   2.03342400e+05 
     5367    5368    1       1.39860000e-01   2.96436400e+05 
     5367    6716    1       1.51590000e-01   2.03342400e+05 
     5368    5369    1       1.51470000e-01   2.04103888e+05 
     5369    5370    1       1.09620000e-01   2.88905200e+05 
     5369    5371    1       1.09620000e-01   2.88905200e+05 
     5369    5372    1       1.09620000e-01   2.88905200e+05 
     5373    5374    1       1.09470000e-01   2.90754528e+05 
     5373    5375    1       1.54250000e-01   1.87443200e+05 
     5375    5376    1       1.09540000e-01   2.89892624e+05 
     5375    5377    1       1.54830000e-01   1.84179680e+05 
     5377    5378    1       1.09540000e-01   2.89892624e+05 
     5377    5379    1       1.09540000e-01   2.89892624e+05 
     5380    5381    1       1.39860000e-01   2.96436400e+05 
     5381    5382    1       1.08600000e-01   3.01825392e+05 
     5383    5384    1       1.09620000e-01   2.88905200e+05 
     5383    5385    1       1.09620000e-01   2.88905200e+05 
     5383    5386    1       1.09620000e-01   2.88905200e+05 
     5383    5387    1       1.53720000e-01   1.90489152e+05 
     5387    5388    1       1.53720000e-01   1.90489152e+05 
     5387    5392    1       1.51510000e-01   2.03844480e+05 
     5387    5416    1       1.51510000e-01   2.03844480e+05 
     5388    5389    1       1.09620000e-01   2.88905200e+05 
     5388    5390    1       1.09620000e-01   2.88905200e+05 
     5388    5391    1       1.09620000e-01   2.88905200e+05 
     5392    5393    1       1.40560000e-01   2.89591376e+05 
     5392    5413    1       1.39860000e-01   2.96436400e+05 
     5393    5394    1       1.40560000e-01   2.89591376e+05 
     5393    5415    1       1.48290000e-01   2.25408816e+05 
     5394    5395    1       1.08600000e-01   3.01825392e+05 
     5394    5396    1       1.39860000e-01   2.96436400e+05 
     5396    5397    1       1.51590000e-01   2.03342400e+05 
     5396    5412    1       1.39860000e-01   2.96436400e+05 
     5397    5398    1       1.09470000e-01   2.90754528e+05 
     5397    5399    1       1.55780000e-01   1.78983152e+05 
     5397    5407    1       1.54250000e-01   1.87443200e+05 
     5399    5400    1       1.09470000e-01   2.90754528e+05 
     5399    5401    1       1.54250000e-01   1.87443200e+05 
     5399    5412    1       1.51590000e-01   2.03342400e+05 
     5401    5402    1       1.09540000e-01   2.89892624e+05 
     5401    5403    1       1.54250000e-01   1.87443200e+05 
     5401    5409    1       1.54830000e-01   1.84179680e+05 
     5403    5404    1       1.09470000e-01   2.90754528e+05 
     5403    5405    1       1.55780000e-01   1.78983152e+05 
     5405    5406    1       1.09470000e-01   2.90754528e+05 
     5407    5405    1       1.54250000e-01   1.87443200e+05 
     5407    5408    1       1.09540000e-01   2.89892624e+05 
     5407    5409    1       1.54830000e-01   1.84179680e+05 
     5409    5410    1       1.09540000e-01   2.89892624e+05 
     5409    5411    1       1.09540000e-01   2.89892624e+05 
     5412    5413    1       1.39860000e-01   2.96436400e+05 
     5413    5414    1       1.08600000e-01   3.01825392e+05 
     5415    5416    1       1.40560000e-01   2.89591376e+05 
     5415    5450    1       1.40560000e-01   2.89591376e+05 
     5416    5417    1       1.39860000e-01   2.96436400e+05 
     5417    5418    1       1.08600000e-01   3.01825392e+05 
     5417    5419    1       1.39860000e-01   2.96436400e+05 
     5419    5420    1       1.51590000e-01   2.03342400e+05 
     5419    5449    1       1.39860000e-01   2.96436400e+05 
     5420    5421    1       1.09470000e-01   2.90754528e+05 
     5420    5422    1       1.55780000e-01   1.78983152e+05 
     5420    5444    1       1.54250000e-01   1.87443200e+05 
     5422    5423    1       1.09470000e-01   2.90754528e+05 
     5422    5424    1       1.54250000e-01   1.87443200e+05 
     5422    5449    1       1.51590000e-01   2.03342400e+05 
     5424    5425    1       1.09540000e-01   2.89892624e+05 
     5424    5426    1       1.54250000e-01   1.87443200e+05 
     5424    5446    1       1.54830000e-01   1.84179680e+05 
     5426    5427    1       1.09470000e-01   2.90754528e+05 
     5426    5428    1       1.51590000e-01   2.03342400e+05 
     5426    5442    1       1.55780000e-01   1.78983152e+05 
     5428    5429    1       1.39860000e-01   2.96436400e+05 
     5428    5437    1       1.39860000e-01   2.96436400e+05 
     5429    5430    1       1.39860000e-01   2.96436400e+05 
     5429    5442    1       1.51590000e-01   2.03342400e+05 
     5430    5431    1       1.51470000e-01   2.04103888e+05 
     5430    5435    1       1.39860000e-01   2.96436400e+05 
     5431    5432    1       1.09620000e-01   2.88905200e+05 
     5431    5433    1       1.09620000e-01   2.88905200e+05 
     5431    5434    1       1.09620000e-01   2.88905200e+05 
     5435    3678    1       1.51590000e-01   2.03342400e+05 
     5435    5436    1       1.39860000e-01   2.96436400e+05 
     5436    3680    1       1.51590000e-01   2.03342400e+05 
     5436    5437    1       1.39860000e-01   2.96436400e+05 
     5437    5438    1       1.51470000e-01   2.04103888e+05 
     5438    5439    1       1.09620000e-01   2.88905200e+05 
     5438    5440    1       1.09620000e-01   2.88905200e+05 
     5438    5441    1       1.09620000e-01   2.88905200e+05 
     5442    5443    1       1.09470000e-01   2.90754528e+05 
     5442    5444    1       1.54250000e-01   1.87443200e+05 
     5444    5445    1       1.09540000e-01   2.89892624e+05 
     5444    5446    1       1.54830000e-01   1.84179680e+05 
     5446    5447    1       1.09540000e-01   2.89892624e+05 
     5446    5448    1       1.09540000e-01   2.89892624e+05 
     5449    5450    1       1.39860000e-01   2.96436400e+05 
     5450    5451    1       1.08600000e-01   3.01825392e+05 
     5452    5453    1       1.09620000e-01   2.88905200e+05 
     5452    5454    1       1.09620000e-01   2.88905200e+05 
     5452    5455    1       1.09620000e-01   2.88905200e+05 
     5452    5456    1       1.53720000e-01   1.90489152e+05 
     5456    5457    1       1.53720000e-01   1.90489152e+05 
     5456    5461    1       1.51510000e-01   2.03844480e+05 
     5456    5485    1       1.51510000e-01   2.03844480e+05 
     5457    5458    1       1.09620000e-01   2.88905200e+05 
     5457    5459    1       1.09620000e-01   2.88905200e+05 
     5457    5460    1       1.09620000e-01   2.88905200e+05 
     5461    5462    1       1.40560000e-01   2.89591376e+05 
     5461    5482    1       1.39860000e-01   2.96436400e+05 
     5462    5463    1       1.40560000e-01   2.89591376e+05 
     5462    5484    1       1.48290000e-01   2.25408816e+05 
     5463    5464    1       1.08600000e-01   3.01825392e+05 
     5463    5465    1       1.39860000e-01   2.96436400e+05 
     5465    5466    1       1.51590000e-01   2.03342400e+05 
     5465    5481    1       1.39860000e-01   2.96436400e+05 
     5466    5467    1       1.09470000e-01   2.90754528e+05 
     5466    5468    1       1.55780000e-01   1.78983152e+05 
     5466    5476    1       1.54250000e-01   1.87443200e+05 
     5468    5469    1       1.09470000e-01   2.90754528e+05 
     5468    5470    1       1.54250000e-01   1.87443200e+05 
     5468    5481    1       1.51590000e-01   2.03342400e+05 
     5470    5471    1       1.09540000e-01   2.89892624e+05 
     5470    5472    1       1.54250000e-01   1.87443200e+05 
     5470    5478    1       1.54830000e-01   1.84179680e+05 
     5472    5473    1       1.09470000e-01   2.90754528e+05 
     5472    5474    1       1.55780000e-01   1.78983152e+05 
     5474    5475    1       1.09470000e-01   2.90754528e+05 
     5476    5474    1       1.54250000e-01   1.87443200e+05 
     5476    5477    1       1.09540000e-01   2.89892624e+05 
     5476    5478    1       1.54830000e-01   1.84179680e+05 
     5478    5479    1       1.09540000e-01   2.89892624e+05 
     5478    5480    1       1.09540000e-01   2.89892624e+05 
     5481    5482    1       1.39860000e-01   2.96436400e+05 
     5482    5483    1       1.08600000e-01   3.01825392e+05 
     5484    5485    1       1.40560000e-01   2.89591376e+05 
     5484    5519    1       1.40560000e-01   2.89591376e+05 
     5485    5486    1       1.39860000e-01   2.96436400e+05 
     5486    5487    1       1.08600000e-01   3.01825392e+05 
     5486    5488    1       1.39860000e-01   2.96436400e+05 
     5488    5489    1       1.51590000e-01   2.03342400e+05 
     5488    5518    1       1.39860000e-01   2.96436400e+05 
     5489    5490    1       1.09470000e-01   2.90754528e+05 
     5489    5491    1       1.55780000e-01   1.78983152e+05 
     5489    5513    1       1.54250000e-01   1.87443200e+05 
     5491    5492    1       1.09470000e-01   2.90754528e+05 
     5491    5493    1       1.54250000e-01   1.87443200e+05 
     5491    5518    1       1.51590000e-01   2.03342400e+05 
     5493    5494    1       1.09540000e-01   2.89892624e+05 
     5493    5495    1       1.54250000e-01   1.87443200e+05 
     5493    5515    1       1.54830000e-01   1.84179680e+05 
     5495    5496    1       1.09470000e-01   2.90754528e+05 
     5495    5497    1       1.51590000e-01   2.03342400e+05 
     5495    5511    1       1.55780000e-01   1.78983152e+05 
     5497    5498    1       1.39860000e-01   2.96436400e+05 
     5497    5506    1       1.39860000e-01   2.96436400e+05 
     5498    5499    1       1.39860000e-01   2.96436400e+05 
     5498    5511    1       1.51590000e-01   2.03342400e+05 
     5499    5500    1       1.51470000e-01   2.04103888e+05 
     5499    5504    1       1.39860000e-01   2.96436400e+05 
     5500    5501    1       1.09620000e-01   2.88905200e+05 
     5500    5502    1       1.09620000e-01   2.88905200e+05 
     5500    5503    1       1.09620000e-01   2.88905200e+05 
     5504    5505    1       1.39860000e-01   2.96436400e+05 
     5504    6026    1       1.51590000e-01   2.03342400e+05 
     5505    5506    1       1.39860000e-01   2.96436400e+05 
     5505    6024    1       1.51590000e-01   2.03342400e+05 
     5506    5507    1       1.51470000e-01   2.04103888e+05 
     5507    5508    1       1.09620000e-01   2.88905200e+05 
     5507    5509    1       1.09620000e-01   2.88905200e+05 
     5507    5510    1       1.09620000e-01   2.88905200e+05 
     5511    5512    1       1.09470000e-01   2.90754528e+05 
     5511    5513    1       1.54250000e-01   1.87443200e+05 
     5513    5514    1       1.09540000e-01   2.89892624e+05 
     5513    5515    1       1.54830000e-01   1.84179680e+05 
     5515    5516    1       1.09540000e-01   2.89892624e+05 
     5515    5517    1       1.09540000e-01   2.89892624e+05 
     5518    5519    1       1.39860000e-01   2.96436400e+05 
     5519    5520    1       1.08600000e-01   3.01825392e+05 
     5521    5522    1       1.09620000e-01   2.88905200e+05 
     5521    5523    1       1.09620000e-01   2.88905200e+05 
     5521    5524    1       1.09620000e-01   2.88905200e+05 
     5521    5525    1       1.53720000e-01   1.90489152e+05 
     5525    5526    1       1.53720000e-01   1.90489152e+05 
     5525    5530    1       1.51510000e-01   2.03844480e+05 
     5525    5554    1       1.51510000e-01   2.03844480e+05 
     5526    5527    1       1.09620000e-01   2.88905200e+05 
     5526    5528    1       1.09620000e-01   2.88905200e+05 
     5526    5529    1       1.09620000e-01   2.88905200e+05 
     5530    5531    1       1.40560000e-01   2.89591376e+05 
     5530    5551    1       1.39860000e-01   2.96436400e+05 
     5531    5532    1       1.40560000e-01   2.89591376e+05 
     5531    5553    1       1.48290000e-01   2.25408816e+05 
     5532    5533    1       1.08600000e-01   3.01825392e+05 
     5532    5534    1       1.39860000e-01   2.96436400e+05 
     5534    5535    1       1.51590000e-01   2.03342400e+05 
     5534    5550    1       1.39860000e-01   2.96436400e+05 
     5535    5536    1       1.09470000e-01   2.90754528e+05 
     5535    5537    1       1.55780000e-01   1.78983152e+05 
     5535    5545    1       1.54250000e-01   1.87443200e+05 
     5537    5538    1       1.09470000e-01   2.90754528e+05 
     5537    5539    1       1.54250000e-01   1.87443200e+05 
     5537    5550    1       1.51590000e-01   2.03342400e+05 
     5539    5540    1       1.09540000e-01   2.89892624e+05 
     5539    5541    1       1.54250000e-01   1.87443200e+05 
     5539    5547    1       1.54830000e-01   1.84179680e+05 
     5541    5542    1       1.09470000e-01   2.90754528e+05 
     5541    5543    1       1.55780000e-01   1.78983152e+05 
     5543    5544    1       1.09470000e-01   2.90754528e+05 
     5545    5543    1       1.54250000e-01   1.87443200e+05 
     5545    5546    1       1.09540000e-01   2.89892624e+05 
     5545    5547    1       1.54830000e-01   1.84179680e+05 
     5547    5548    1       1.09540000e-01   2.89892624e+05 
     5547    5549    1       1.09540000e-01   2.89892624e+05 
     5550    5551    1       1.39860000e-01   2.96436400e+05 
     5551    5552    1       1.08600000e-01   3.01825392e+05 
     5553    5554    1       1.40560000e-01   2.89591376e+05 
     5553    5588    1       1.40560000e-01   2.89591376e+05 
     5554    5555    1       1.39860000e-01   2.96436400e+05 
     5555    5556    1       1.08600000e-01   3.01825392e+05 
     5555    5557    1       1.39860000e-01   2.96436400e+05 
     5557    5558    1       1.51590000e-01   2.03342400e+05 
     5557    5587    1       1.39860000e-01   2.96436400e+05 
     5558    5559    1       1.09470000e-01   2.90754528e+05 
     5558    5560    1       1.55780000e-01   1.78983152e+05 
     5558    5582    1       1.54250000e-01   1.87443200e+05 
     5560    5561    1       1.09470000e-01   2.90754528e+05 
     5560    5562    1       1.54250000e-01   1.87443200e+05 
     5560    5587    1       1.51590000e-01   2.03342400e+05 
     5562    5563    1       1.09540000e-01   2.89892624e+05 
     5562    5564    1       1.54250000e-01   1.87443200e+05 
     5562    5584    1       1.54830000e-01   1.84179680e+05 
     5564    5565    1       1.09470000e-01   2.90754528e+05 
     5564    5566    1       1.51590000e-01   2.03342400e+05 
     5564    5580    1       1.55780000e-01   1.78983152e+05 
     5566    5567    1       1.39860000e-01   2.96436400e+05 
     5566    5575    1       1.39860000e-01   2.96436400e+05 
     5567    5568    1       1.39860000e-01   2.96436400e+05 
     5567    5580    1       1.51590000e-01   2.03342400e+05 
     5568    5569    1       1.51470000e-01   2.04103888e+05 
     5568    5573    1       1.39860000e-01   2.96436400e+05 
     5569    5570    1       1.09620000e-01   2.88905200e+05 
     5569    5571    1       1.09620000e-01   2.88905200e+05 
     5569    5572    1       1.09620000e-01   2.88905200e+05 
     5573    1334    1       1.51590000e-01   2.03342400e+05 
     5573    5574    1       1.39860000e-01   2.96436400e+05 
     5574    1332    1       1.51590000e-01   2.03342400e+05 
     5574    5575    1       1.39860000e-01   2.96436400e+05 
     5575    5576    1       1.51470000e-01   2.04103888e+05 
     5576    5577    1       1.09620000e-01   2.88905200e+05 
     5576    5578    1       1.09620000e-01   2.88905200e+05 
     5576    5579    1       1.09620000e-01   2.88905200e+05 
     5580    5581    1       1.09470000e-01   2.90754528e+05 
     5580    5582    1       1.54250000e-01   1.87443200e+05 
     5582    5583    1       1.09540000e-01   2.89892624e+05 
     5582    5584    1       1.54830000e-01   1.84179680e+05 
     5584    5585    1       1.09540000e-01   2.89892624e+05 
     5584    5586    1       1.09540000e-01   2.89892624e+05 
     5587    5588    1       1.39860000e-01   2.96436400e+05 
     5588    5589    1       1.08600000e-01   3.01825392e+05 
     5590    5591    1       1.09620000e-01   2.88905200e+05 
     5590    5592    1       1.09620000e-01   2.88905200e+05 
     5590    5593    1       1.09620000e-01   2.88905200e+05 
     5590    5594    1       1.53720000e-01   1.90489152e+05 
     5594    5595    1       1.53720000e-01   1.90489152e+05 
     5594    5599    1       1.51510000e-01   2.03844480e+05 
     5594    5623    1       1.51510000e-01   2.03844480e+05 
     5595    5596    1       1.09620000e-01   2.88905200e+05 
     5595    5597    1       1.09620000e-01   2.88905200e+05 
     5595    5598    1       1.09620000e-01   2.88905200e+05 
     5599    5600    1       1.40560000e-01   2.89591376e+05 
     5599    5620    1       1.39860000e-01   2.96436400e+05 
     5600    5601    1       1.40560000e-01   2.89591376e+05 
     5600    5622    1       1.48290000e-01   2.25408816e+05 
     5601    5602    1       1.08600000e-01   3.01825392e+05 
     5601    5603    1       1.39860000e-01   2.96436400e+05 
     5603    5604    1       1.51590000e-01   2.03342400e+05 
     5603    5619    1       1.39860000e-01   2.96436400e+05 
     5604    5605    1       1.09470000e-01   2.90754528e+05 
     5604    5606    1       1.55780000e-01   1.78983152e+05 
     5604    5614    1       1.54250000e-01   1.87443200e+05 
     5606    5607    1       1.09470000e-01   2.90754528e+05 
     5606    5608    1       1.54250000e-01   1.87443200e+05 
     5606    5619    1       1.51590000e-01   2.03342400e+05 
     5608    5609    1       1.09540000e-01   2.89892624e+05 
     5608    5610    1       1.54250000e-01   1.87443200e+05 
     5608    5616    1       1.54830000e-01   1.84179680e+05 
     5610    5611    1       1.09470000e-01   2.90754528e+05 
     5610    5612    1       1.55780000e-01   1.78983152e+05 
     5612    5613    1       1.09470000e-01   2.90754528e+05 
     5614    5612    1       1.54250000e-01   1.87443200e+05 
     5614    5615    1       1.09540000e-01   2.89892624e+05 
     5614    5616    1       1.54830000e-01   1.84179680e+05 
     5616    5617    1       1.09540000e-01   2.89892624e+05 
     5616    5618    1       1.09540000e-01   2.89892624e+05 
     5619    5620    1       1.39860000e-01   2.96436400e+05 
     5620    5621    1       1.08600000e-01   3.01825392e+05 
     5622    5623    1       1.40560000e-01   2.89591376e+05 
     5622    5657    1       1.40560000e-01   2.89591376e+05 
     5623    5624    1       1.39860000e-01   2.96436400e+05 
     5624    5625    1       1.08600000e-01   3.01825392e+05 
     5624    5626    1       1.39860000e-01   2.96436400e+05 
     5626    5627    1       1.51590000e-01   2.03342400e+05 
     5626    5656    1       1.39860000e-01   2.96436400e+05 
     5627    5628    1       1.09470000e-01   2.90754528e+05 
     5627    5629    1       1.55780000e-01   1.78983152e+05 
     5627    5651    1       1.54250000e-01   1.87443200e+05 
     5629    5630    1       1.09470000e-01   2.90754528e+05 
     5629    5631    1       1.54250000e-01   1.87443200e+05 
     5629    5656    1       1.51590000e-01   2.03342400e+05 
     5631    5632    1       1.09540000e-01   2.89892624e+05 
     5631    5633    1       1.54250000e-01   1.87443200e+05 
     5631    5653    1       1.54830000e-01   1.84179680e+05 
     5633    5634    1       1.09470000e-01   2.90754528e+05 
     5633    5635    1       1.51590000e-01   2.03342400e+05 
     5633    5649    1       1.55780000e-01   1.78983152e+05 
     5635    5636    1       1.39860000e-01   2.96436400e+05 
     5635    5644    1       1.39860000e-01   2.96436400e+05 
     5636    5637    1       1.39860000e-01   2.96436400e+05 
     5636    5649    1       1.51590000e-01   2.03342400e+05 
     5637    5638    1       1.51470000e-01   2.04103888e+05 
     5637    5642    1       1.39860000e-01   2.96436400e+05 
     5638    5639    1       1.09620000e-01   2.88905200e+05 
     5638    5640    1       1.09620000e-01   2.88905200e+05 
     5638    5641    1       1.09620000e-01   2.88905200e+05 
     5642    299     1       1.51590000e-01   2.03342400e+05 
     5642    5643    1       1.39860000e-01   2.96436400e+05 
     5643    297     1       1.51590000e-01   2.03342400e+05 
     5643    5644    1       1.39860000e-01   2.96436400e+05 
     5644    5645    1       1.51470000e-01   2.04103888e+05 
     5645    5646    1       1.09620000e-01   2.88905200e+05 
     5645    5647    1       1.09620000e-01   2.88905200e+05 
     5645    5648    1       1.09620000e-01   2.88905200e+05 
     5649    5650    1       1.09470000e-01   2.90754528e+05 
     5649    5651    1       1.54250000e-01   1.87443200e+05 
     5651    5652    1       1.09540000e-01   2.89892624e+05 
     5651    5653    1       1.54830000e-01   1.84179680e+05 
     5653    5654    1       1.09540000e-01   2.89892624e+05 
     5653    5655    1       1.09540000e-01   2.89892624e+05 
     5656    5657    1       1.39860000e-01   2.96436400e+05 
     5657    5658    1       1.08600000e-01   3.01825392e+05 
     5659    5660    1       1.09620000e-01   2.88905200e+05 
     5659    5661    1       1.09620000e-01   2.88905200e+05 
     5659    5662    1       1.09620000e-01   2.88905200e+05 
     5659    5663    1       1.53720000e-01   1.90489152e+05 
     5663    5664    1       1.53720000e-01   1.90489152e+05 
     5663    5668    1       1.51510000e-01   2.03844480e+05 
     5663    5692    1       1.51510000e-01   2.03844480e+05 
     5664    5665    1       1.09620000e-01   2.88905200e+05 
     5664    5666    1       1.09620000e-01   2.88905200e+05 
     5664    5667    1       1.09620000e-01   2.88905200e+05 
     5668    5669    1       1.40560000e-01   2.89591376e+05 
     5668    5689    1       1.39860000e-01   2.96436400e+05 
     5669    5670    1       1.40560000e-01   2.89591376e+05 
     5669    5691    1       1.48290000e-01   2.25408816e+05 
     5670    5671    1       1.08600000e-01   3.01825392e+05 
     5670    5672    1       1.39860000e-01   2.96436400e+05 
     5672    5673    1       1.51590000e-01   2.03342400e+05 
     5672    5688    1       1.39860000e-01   2.96436400e+05 
     5673    5674    1       1.09470000e-01   2.90754528e+05 
     5673    5675    1       1.55780000e-01   1.78983152e+05 
     5673    5683    1       1.54250000e-01   1.87443200e+05 
     5675    5676    1       1.09470000e-01   2.90754528e+05 
     5675    5677    1       1.54250000e-01   1.87443200e+05 
     5675    5688    1       1.51590000e-01   2.03342400e+05 
     5677    5678    1       1.09540000e-01   2.89892624e+05 
     5677    5679    1       1.54250000e-01   1.87443200e+05 
     5677    5685    1       1.54830000e-01   1.84179680e+05 
     5679    5680    1       1.09470000e-01   2.90754528e+05 
     5679    5681    1       1.55780000e-01   1.78983152e+05 
     5681    5682    1       1.09470000e-01   2.90754528e+05 
     5683    5681    1       1.54250000e-01   1.87443200e+05 
     5683    5684    1       1.09540000e-01   2.89892624e+05 
     5683    5685    1       1.54830000e-01   1.84179680e+05 
     5685    5686    1       1.09540000e-01   2.89892624e+05 
     5685    5687    1       1.09540000e-01   2.89892624e+05 
     5688    5689    1       1.39860000e-01   2.96436400e+05 
     5689    5690    1       1.08600000e-01   3.01825392e+05 
     5691    5692    1       1.40560000e-01   2.89591376e+05 
     5691    5726    1       1.40560000e-01   2.89591376e+05 
     5692    5693    1       1.39860000e-01   2.96436400e+05 
     5693    5694    1       1.08600000e-01   3.01825392e+05 
     5693    5695    1       1.39860000e-01   2.96436400e+05 
     5695    5696    1       1.51590000e-01   2.03342400e+05 
     5695    5725    1       1.39860000e-01   2.96436400e+05 
     5696    5697    1       1.09470000e-01   2.90754528e+05 
     5696    5698    1       1.55780000e-01   1.78983152e+05 
     5696    5720    1       1.54250000e-01   1.87443200e+05 
     5698    5699    1       1.09470000e-01   2.90754528e+05 
     5698    5700    1       1.54250000e-01   1.87443200e+05 
     5698    5725    1       1.51590000e-01   2.03342400e+05 
     5700    5701    1       1.09540000e-01   2.89892624e+05 
     5700    5702    1       1.54250000e-01   1.87443200e+05 
     5700    5722    1       1.54830000e-01   1.84179680e+05 
     5702    5703    1       1.09470000e-01   2.90754528e+05 
     5702    5704    1       1.51590000e-01   2.03342400e+05 
     5702    5718    1       1.55780000e-01   1.78983152e+05 
     5704    5705    1       1.39860000e-01   2.96436400e+05 
     5704    5713    1       1.39860000e-01   2.96436400e+05 
     5705    5706    1       1.39860000e-01   2.96436400e+05 
     5705    5718    1       1.51590000e-01   2.03342400e+05 
     5706    5707    1       1.51470000e-01   2.04103888e+05 
     5706    5711    1       1.39860000e-01   2.96436400e+05 
     5707    5708    1       1.09620000e-01   2.88905200e+05 
     5707    5709    1       1.09620000e-01   2.88905200e+05 
     5707    5710    1       1.09620000e-01   2.88905200e+05 
     5711    90      1       1.51590000e-01   2.03342400e+05 
     5711    5712    1       1.39860000e-01   2.96436400e+05 
     5712    92      1       1.51590000e-01   2.03342400e+05 
     5712    5713    1       1.39860000e-01   2.96436400e+05 
     5713    5714    1       1.51470000e-01   2.04103888e+05 
     5714    5715    1       1.09620000e-01   2.88905200e+05 
     5714    5716    1       1.09620000e-01   2.88905200e+05 
     5714    5717    1       1.09620000e-01   2.88905200e+05 
     5718    5719    1       1.09470000e-01   2.90754528e+05 
     5718    5720    1       1.54250000e-01   1.87443200e+05 
     5720    5721    1       1.09540000e-01   2.89892624e+05 
     5720    5722    1       1.54830000e-01   1.84179680e+05 
     5722    5723    1       1.09540000e-01   2.89892624e+05 
     5722    5724    1       1.09540000e-01   2.89892624e+05 
     5725    5726    1       1.39860000e-01   2.96436400e+05 
     5726    5727    1       1.08600000e-01   3.01825392e+05 
     5728    5729    1       1.09620000e-01   2.88905200e+05 
     5728    5730    1       1.09620000e-01   2.88905200e+05 
     5728    5731    1       1.09620000e-01   2.88905200e+05 
     5728    5732    1       1.53720000e-01   1.90489152e+05 
     5732    5733    1       1.53720000e-01   1.90489152e+05 
     5732    5737    1       1.51510000e-01   2.03844480e+05 
     5732    5761    1       1.51510000e-01   2.03844480e+05 
     5733    5734    1       1.09620000e-01   2.88905200e+05 
     5733    5735    1       1.09620000e-01   2.88905200e+05 
     5733    5736    1       1.09620000e-01   2.88905200e+05 
     5737    5738    1       1.40560000e-01   2.89591376e+05 
     5737    5758    1       1.39860000e-01   2.96436400e+05 
     5738    5739    1       1.40560000e-01   2.89591376e+05 
     5738    5760    1       1.48290000e-01   2.25408816e+05 
     5739    5740    1       1.08600000e-01   3.01825392e+05 
     5739    5741    1       1.39860000e-01   2.96436400e+05 
     5741    5742    1       1.51590000e-01   2.03342400e+05 
     5741    5757    1       1.39860000e-01   2.96436400e+05 
     5742    5743    1       1.09470000e-01   2.90754528e+05 
     5742    5744    1       1.55780000e-01   1.78983152e+05 
     5742    5752    1       1.54250000e-01   1.87443200e+05 
     5744    5745    1       1.09470000e-01   2.90754528e+05 
     5744    5746    1       1.54250000e-01   1.87443200e+05 
     5744    5757    1       1.51590000e-01   2.03342400e+05 
     5746    5747    1       1.09540000e-01   2.89892624e+05 
     5746    5748    1       1.54250000e-01   1.87443200e+05 
     5746    5754    1       1.54830000e-01   1.84179680e+05 
     5748    5749    1       1.09470000e-01   2.90754528e+05 
     5748    5750    1       1.55780000e-01   1.78983152e+05 
     5750    5751    1       1.09470000e-01   2.90754528e+05 
     5752    5750    1       1.54250000e-01   1.87443200e+05 
     5752    5753    1       1.09540000e-01   2.89892624e+05 
     5752    5754    1       1.54830000e-01   1.84179680e+05 
     5754    5755    1       1.09540000e-01   2.89892624e+05 
     5754    5756    1       1.09540000e-01   2.89892624e+05 
     5757    5758    1       1.39860000e-01   2.96436400e+05 
     5758    5759    1       1.08600000e-01   3.01825392e+05 
     5760    5761    1       1.40560000e-01   2.89591376e+05 
     5760    5795    1       1.40560000e-01   2.89591376e+05 
     5761    5762    1       1.39860000e-01   2.96436400e+05 
     5762    5763    1       1.08600000e-01   3.01825392e+05 
     5762    5764    1       1.39860000e-01   2.96436400e+05 
     5764    5765    1       1.51590000e-01   2.03342400e+05 
     5764    5794    1       1.39860000e-01   2.96436400e+05 
     5765    5766    1       1.09470000e-01   2.90754528e+05 
     5765    5767    1       1.55780000e-01   1.78983152e+05 
     5765    5789    1       1.54250000e-01   1.87443200e+05 
     5767    5768    1       1.09470000e-01   2.90754528e+05 
     5767    5769    1       1.54250000e-01   1.87443200e+05 
     5767    5794    1       1.51590000e-01   2.03342400e+05 
     5769    5770    1       1.09540000e-01   2.89892624e+05 
     5769    5771    1       1.54250000e-01   1.87443200e+05 
     5769    5791    1       1.54830000e-01   1.84179680e+05 
     5771    5772    1       1.09470000e-01   2.90754528e+05 
     5771    5773    1       1.51590000e-01   2.03342400e+05 
     5771    5787    1       1.55780000e-01   1.78983152e+05 
     5773    5774    1       1.39860000e-01   2.96436400e+05 
     5773    5782    1       1.39860000e-01   2.96436400e+05 
     5774    5775    1       1.39860000e-01   2.96436400e+05 
     5774    5787    1       1.51590000e-01   2.03342400e+05 
     5775    5776    1       1.51470000e-01   2.04103888e+05 
     5775    5780    1       1.39860000e-01   2.96436400e+05 
     5776    5777    1       1.09620000e-01   2.88905200e+05 
     5776    5778    1       1.09620000e-01   2.88905200e+05 
     5776    5779    1       1.09620000e-01   2.88905200e+05 
     5780    573     1       1.51590000e-01   2.03342400e+05 
     5780    5781    1       1.39860000e-01   2.96436400e+05 
     5781    575     1       1.51590000e-01   2.03342400e+05 
     5781    5782    1       1.39860000e-01   2.96436400e+05 
     5782    5783    1       1.51470000e-01   2.04103888e+05 
     5783    5784    1       1.09620000e-01   2.88905200e+05 
     5783    5785    1       1.09620000e-01   2.88905200e+05 
     5783    5786    1       1.09620000e-01   2.88905200e+05 
     5787    5788    1       1.09470000e-01   2.90754528e+05 
     5787    5789    1       1.54250000e-01   1.87443200e+05 
     5789    5790    1       1.09540000e-01   2.89892624e+05 
     5789    5791    1       1.54830000e-01   1.84179680e+05 
     5791    5792    1       1.09540000e-01   2.89892624e+05 
     5791    5793    1       1.09540000e-01   2.89892624e+05 
     5794    5795    1       1.39860000e-01   2.96436400e+05 
     5795    5796    1       1.08600000e-01   3.01825392e+05 
     5797    5798    1       1.09620000e-01   2.88905200e+05 
     5797    5799    1       1.09620000e-01   2.88905200e+05 
     5797    5800    1       1.09620000e-01   2.88905200e+05 
     5797    5801    1       1.53720000e-01   1.90489152e+05 
     5801    5802    1       1.53720000e-01   1.90489152e+05 
     5801    5806    1       1.51510000e-01   2.03844480e+05 
     5801    5830    1       1.51510000e-01   2.03844480e+05 
     5802    5803    1       1.09620000e-01   2.88905200e+05 
     5802    5804    1       1.09620000e-01   2.88905200e+05 
     5802    5805    1       1.09620000e-01   2.88905200e+05 
     5806    5807    1       1.40560000e-01   2.89591376e+05 
     5806    5827    1       1.39860000e-01   2.96436400e+05 
     5807    5808    1       1.40560000e-01   2.89591376e+05 
     5807    5829    1       1.48290000e-01   2.25408816e+05 
     5808    5809    1       1.08600000e-01   3.01825392e+05 
     5808    5810    1       1.39860000e-01   2.96436400e+05 
     5810    5811    1       1.51590000e-01   2.03342400e+05 
     5810    5826    1       1.39860000e-01   2.96436400e+05 
     5811    5812    1       1.09470000e-01   2.90754528e+05 
     5811    5813    1       1.55780000e-01   1.78983152e+05 
     5811    5821    1       1.54250000e-01   1.87443200e+05 
     5813    5814    1       1.09470000e-01   2.90754528e+05 
     5813    5815    1       1.54250000e-01   1.87443200e+05 
     5813    5826    1       1.51590000e-01   2.03342400e+05 
     5815    5816    1       1.09540000e-01   2.89892624e+05 
     5815    5817    1       1.54250000e-01   1.87443200e+05 
     5815    5823    1       1.54830000e-01   1.84179680e+05 
     5817    5818    1       1.09470000e-01   2.90754528e+05 
     5817    5819    1       1.55780000e-01   1.78983152e+05 
     5819    5820    1       1.09470000e-01   2.90754528e+05 
     5821    5819    1       1.54250000e-01   1.87443200e+05 
     5821    5822    1       1.09540000e-01   2.89892624e+05 
     5821    5823    1       1.54830000e-01   1.84179680e+05 
     5823    5824    1       1.09540000e-01   2.89892624e+05 
     5823    5825    1       1.09540000e-01   2.89892624e+05 
     5826    5827    1       1.39860000e-01   2.96436400e+05 
     5827    5828    1       1.08600000e-01   3.01825392e+05 
     5829    5830    1       1.40560000e-01   2.89591376e+05 
     5829    5864    1       1.40560000e-01   2.89591376e+05 
     5830    5831    1       1.39860000e-01   2.96436400e+05 
     5831    5832    1       1.08600000e-01   3.01825392e+05 
     5831    5833    1       1.39860000e-01   2.96436400e+05 
     5833    5834    1       1.51590000e-01   2.03342400e+05 
     5833    5863    1       1.39860000e-01   2.96436400e+05 
     5834    5835    1       1.09470000e-01   2.90754528e+05 
     5834    5836    1       1.55780000e-01   1.78983152e+05 
     5834    5858    1       1.54250000e-01   1.87443200e+05 
     5836    5837    1       1.09470000e-01   2.90754528e+05 
     5836    5838    1       1.54250000e-01   1.87443200e+05 
     5836    5863    1       1.51590000e-01   2.03342400e+05 
     5838    5839    1       1.09540000e-01   2.89892624e+05 
     5838    5840    1       1.54250000e-01   1.87443200e+05 
     5838    5860    1       1.54830000e-01   1.84179680e+05 
     5840    5841    1       1.09470000e-01   2.90754528e+05 
     5840    5842    1       1.51590000e-01   2.03342400e+05 
     5840    5856    1       1.55780000e-01   1.78983152e+05 
     5842    5843    1       1.39860000e-01   2.96436400e+05 
     5842    5851    1       1.39860000e-01   2.96436400e+05 
     5843    5844    1       1.39860000e-01   2.96436400e+05 
     5843    5856    1       1.51590000e-01   2.03342400e+05 
     5844    5845    1       1.51470000e-01   2.04103888e+05 
     5844    5849    1       1.39860000e-01   2.96436400e+05 
     5845    5846    1       1.09620000e-01   2.88905200e+05 
     5845    5847    1       1.09620000e-01   2.88905200e+05 
     5845    5848    1       1.09620000e-01   2.88905200e+05 
     5849    3818    1       1.51590000e-01   2.03342400e+05 
     5849    5850    1       1.39860000e-01   2.96436400e+05 
     5850    3816    1       1.51590000e-01   2.03342400e+05 
     5850    5851    1       1.39860000e-01   2.96436400e+05 
     5851    5852    1       1.51470000e-01   2.04103888e+05 
     5852    5853    1       1.09620000e-01   2.88905200e+05 
     5852    5854    1       1.09620000e-01   2.88905200e+05 
     5852    5855    1       1.09620000e-01   2.88905200e+05 
     5856    5857    1       1.09470000e-01   2.90754528e+05 
     5856    5858    1       1.54250000e-01   1.87443200e+05 
     5858    5859    1       1.09540000e-01   2.89892624e+05 
     5858    5860    1       1.54830000e-01   1.84179680e+05 
     5860    5861    1       1.09540000e-01   2.89892624e+05 
     5860    5862    1       1.09540000e-01   2.89892624e+05 
     5863    5864    1       1.39860000e-01   2.96436400e+05 
     5864    5865    1       1.08600000e-01   3.01825392e+05 
     5866    5867    1       1.09620000e-01   2.88905200e+05 
     5866    5868    1       1.09620000e-01   2.88905200e+05 
     5866    5869    1       1.09620000e-01   2.88905200e+05 
     5866    5870    1       1.53720000e-01   1.90489152e+05 
     5870    5871    1       1.53720000e-01   1.90489152e+05 
     5870    5875    1       1.51510000e-01   2.03844480e+05 
     5870    5899    1       1.51510000e-01   2.03844480e+05 
     5871    5872    1       1.09620000e-01   2.88905200e+05 
     5871    5873    1       1.09620000e-01   2.88905200e+05 
     5871    5874    1       1.09620000e-01   2.88905200e+05 
     5875    5876    1       1.40560000e-01   2.89591376e+05 
     5875    5896    1       1.39860000e-01   2.96436400e+05 
     5876    5877    1       1.40560000e-01   2.89591376e+05 
     5876    5898    1       1.48290000e-01   2.25408816e+05 
     5877    5878    1       1.08600000e-01   3.01825392e+05 
     5877    5879    1       1.39860000e-01   2.96436400e+05 
     5879    5880    1       1.51590000e-01   2.03342400e+05 
     5879    5895    1       1.39860000e-01   2.96436400e+05 
     5880    5881    1       1.09470000e-01   2.90754528e+05 
     5880    5882    1       1.55780000e-01   1.78983152e+05 
     5880    5890    1       1.54250000e-01   1.87443200e+05 
     5882    5883    1       1.09470000e-01   2.90754528e+05 
     5882    5884    1       1.54250000e-01   1.87443200e+05 
     5882    5895    1       1.51590000e-01   2.03342400e+05 
     5884    5885    1       1.09540000e-01   2.89892624e+05 
     5884    5886    1       1.54250000e-01   1.87443200e+05 
     5884    5892    1       1.54830000e-01   1.84179680e+05 
     5886    5887    1       1.09470000e-01   2.90754528e+05 
     5886    5888    1       1.55780000e-01   1.78983152e+05 
     5888    5889    1       1.09470000e-01   2.90754528e+05 
     5890    5888    1       1.54250000e-01   1.87443200e+05 
     5890    5891    1       1.09540000e-01   2.89892624e+05 
     5890    5892    1       1.54830000e-01   1.84179680e+05 
     5892    5893    1       1.09540000e-01   2.89892624e+05 
     5892    5894    1       1.09540000e-01   2.89892624e+05 
     5895    5896    1       1.39860000e-01   2.96436400e+05 
     5896    5897    1       1.08600000e-01   3.01825392e+05 
     5898    5899    1       1.40560000e-01   2.89591376e+05 
     5898    5933    1       1.40560000e-01   2.89591376e+05 
     5899    5900    1       1.39860000e-01   2.96436400e+05 
     5900    5901    1       1.08600000e-01   3.01825392e+05 
     5900    5902    1       1.39860000e-01   2.96436400e+05 
     5902    5903    1       1.51590000e-01   2.03342400e+05 
     5902    5932    1       1.39860000e-01   2.96436400e+05 
     5903    5904    1       1.09470000e-01   2.90754528e+05 
     5903    5905    1       1.55780000e-01   1.78983152e+05 
     5903    5927    1       1.54250000e-01   1.87443200e+05 
     5905    5906    1       1.09470000e-01   2.90754528e+05 
     5905    5907    1       1.54250000e-01   1.87443200e+05 
     5905    5932    1       1.51590000e-01   2.03342400e+05 
     5907    5908    1       1.09540000e-01   2.89892624e+05 
     5907    5909    1       1.54250000e-01   1.87443200e+05 
     5907    5929    1       1.54830000e-01   1.84179680e+05 
     5909    5910    1       1.09470000e-01   2.90754528e+05 
     5909    5911    1       1.51590000e-01   2.03342400e+05 
     5909    5925    1       1.55780000e-01   1.78983152e+05 
     5911    5912    1       1.39860000e-01   2.96436400e+05 
     5911    5920    1       1.39860000e-01   2.96436400e+05 
     5912    5913    1       1.39860000e-01   2.96436400e+05 
     5912    5925    1       1.51590000e-01   2.03342400e+05 
     5913    5914    1       1.51470000e-01   2.04103888e+05 
     5913    5918    1       1.39860000e-01   2.96436400e+05 
     5914    5915    1       1.09620000e-01   2.88905200e+05 
     5914    5916    1       1.09620000e-01   2.88905200e+05 
     5914    5917    1       1.09620000e-01   2.88905200e+05 
     5918    5919    1       1.39860000e-01   2.96436400e+05 
     5918    5955    1       1.51590000e-01   2.03342400e+05 
     5919    5920    1       1.39860000e-01   2.96436400e+05 
     5919    5957    1       1.51590000e-01   2.03342400e+05 
     5920    5921    1       1.51470000e-01   2.04103888e+05 
     5921    5922    1       1.09620000e-01   2.88905200e+05 
     5921    5923    1       1.09620000e-01   2.88905200e+05 
     5921    5924    1       1.09620000e-01   2.88905200e+05 
     5925    5926    1       1.09470000e-01   2.90754528e+05 
     5925    5927    1       1.54250000e-01   1.87443200e+05 
     5927    5928    1       1.09540000e-01   2.89892624e+05 
     5927    5929    1       1.54830000e-01   1.84179680e+05 
     5929    5930    1       1.09540000e-01   2.89892624e+05 
     5929    5931    1       1.09540000e-01   2.89892624e+05 
     5932    5933    1       1.39860000e-01   2.96436400e+05 
     5933    5934    1       1.08600000e-01   3.01825392e+05 
     5935    5936    1       1.09620000e-01   2.88905200e+05 
     5935    5937    1       1.09620000e-01   2.88905200e+05 
     5935    5938    1       1.09620000e-01   2.88905200e+05 
     5935    5939    1       1.53720000e-01   1.90489152e+05 
     5939    5940    1       1.53720000e-01   1.90489152e+05 
     5939    5944    1       1.51510000e-01   2.03844480e+05 
     5939    5968    1       1.51510000e-01   2.03844480e+05 
     5940    5941    1       1.09620000e-01   2.88905200e+05 
     5940    5942    1       1.09620000e-01   2.88905200e+05 
     5940    5943    1       1.09620000e-01   2.88905200e+05 
     5944    5945    1       1.40560000e-01   2.89591376e+05 
     5944    5965    1       1.39860000e-01   2.96436400e+05 
     5945    5946    1       1.40560000e-01   2.89591376e+05 
     5945    5967    1       1.48290000e-01   2.25408816e+05 
     5946    5947    1       1.08600000e-01   3.01825392e+05 
     5946    5948    1       1.39860000e-01   2.96436400e+05 
     5948    5949    1       1.51590000e-01   2.03342400e+05 
     5948    5964    1       1.39860000e-01   2.96436400e+05 
     5949    5950    1       1.09470000e-01   2.90754528e+05 
     5949    5951    1       1.55780000e-01   1.78983152e+05 
     5949    5959    1       1.54250000e-01   1.87443200e+05 
     5951    5952    1       1.09470000e-01   2.90754528e+05 
     5951    5953    1       1.54250000e-01   1.87443200e+05 
     5951    5964    1       1.51590000e-01   2.03342400e+05 
     5953    5954    1       1.09540000e-01   2.89892624e+05 
     5953    5955    1       1.54250000e-01   1.87443200e+05 
     5953    5961    1       1.54830000e-01   1.84179680e+05 
     5955    5956    1       1.09470000e-01   2.90754528e+05 
     5955    5957    1       1.55780000e-01   1.78983152e+05 
     5957    5958    1       1.09470000e-01   2.90754528e+05 
     5959    5957    1       1.54250000e-01   1.87443200e+05 
     5959    5960    1       1.09540000e-01   2.89892624e+05 
     5959    5961    1       1.54830000e-01   1.84179680e+05 
     5961    5962    1       1.09540000e-01   2.89892624e+05 
     5961    5963    1       1.09540000e-01   2.89892624e+05 
     5964    5965    1       1.39860000e-01   2.96436400e+05 
     5965    5966    1       1.08600000e-01   3.01825392e+05 
     5967    5968    1       1.40560000e-01   2.89591376e+05 
     5967    6002    1       1.40560000e-01   2.89591376e+05 
     5968    5969    1       1.39860000e-01   2.96436400e+05 
     5969    5970    1       1.08600000e-01   3.01825392e+05 
     5969    5971    1       1.39860000e-01   2.96436400e+05 
     5971    5972    1       1.51590000e-01   2.03342400e+05 
     5971    6001    1       1.39860000e-01   2.96436400e+05 
     5972    5973    1       1.09470000e-01   2.90754528e+05 
     5972    5974    1       1.55780000e-01   1.78983152e+05 
     5972    5996    1       1.54250000e-01   1.87443200e+05 
     5974    5975    1       1.09470000e-01   2.90754528e+05 
     5974    5976    1       1.54250000e-01   1.87443200e+05 
     5974    6001    1       1.51590000e-01   2.03342400e+05 
     5976    5977    1       1.09540000e-01   2.89892624e+05 
     5976    5978    1       1.54250000e-01   1.87443200e+05 
     5976    5998    1       1.54830000e-01   1.84179680e+05 
     5978    5979    1       1.09470000e-01   2.90754528e+05 
     5978    5980    1       1.51590000e-01   2.03342400e+05 
     5978    5994    1       1.55780000e-01   1.78983152e+05 
     5980    5981    1       1.39860000e-01   2.96436400e+05 
     5980    5989    1       1.39860000e-01   2.96436400e+05 
     5981    5982    1       1.39860000e-01   2.96436400e+05 
     5981    5994    1       1.51590000e-01   2.03342400e+05 
     5982    5983    1       1.51470000e-01   2.04103888e+05 
     5982    5987    1       1.39860000e-01   2.96436400e+05 
     5983    5984    1       1.09620000e-01   2.88905200e+05 
     5983    5985    1       1.09620000e-01   2.88905200e+05 
     5983    5986    1       1.09620000e-01   2.88905200e+05 
     5987    4437    1       1.51590000e-01   2.03342400e+05 
     5987    5988    1       1.39860000e-01   2.96436400e+05 
     5988    4439    1       1.51590000e-01   2.03342400e+05 
     5988    5989    1       1.39860000e-01   2.96436400e+05 
     5989    5990    1       1.51470000e-01   2.04103888e+05 
     5990    5991    1       1.09620000e-01   2.88905200e+05 
     5990    5992    1       1.09620000e-01   2.88905200e+05 
     5990    5993    1       1.09620000e-01   2.88905200e+05 
     5994    5995    1       1.09470000e-01   2.90754528e+05 
     5994    5996    1       1.54250000e-01   1.87443200e+05 
     5996    5997    1       1.09540000e-01   2.89892624e+05 
     5996    5998    1       1.54830000e-01   1.84179680e+05 
     5998    5999    1       1.09540000e-01   2.89892624e+05 
     5998    6000    1       1.09540000e-01   2.89892624e+05 
     6001    6002    1       1.39860000e-01   2.96436400e+05 
     6002    6003    1       1.08600000e-01   3.01825392e+05 
     6004    6005    1       1.09620000e-01   2.88905200e+05 
     6004    6006    1       1.09620000e-01   2.88905200e+05 
     6004    6007    1       1.09620000e-01   2.88905200e+05 
     6004    6008    1       1.53720000e-01   1.90489152e+05 
     6008    6009    1       1.53720000e-01   1.90489152e+05 
     6008    6013    1       1.51510000e-01   2.03844480e+05 
     6008    6037    1       1.51510000e-01   2.03844480e+05 
     6009    6010    1       1.09620000e-01   2.88905200e+05 
     6009    6011    1       1.09620000e-01   2.88905200e+05 
     6009    6012    1       1.09620000e-01   2.88905200e+05 
     6013    6014    1       1.40560000e-01   2.89591376e+05 
     6013    6034    1       1.39860000e-01   2.96436400e+05 
     6014    6015    1       1.40560000e-01   2.89591376e+05 
     6014    6036    1       1.48290000e-01   2.25408816e+05 
     6015    6016    1       1.08600000e-01   3.01825392e+05 
     6015    6017    1       1.39860000e-01   2.96436400e+05 
     6017    6018    1       1.51590000e-01   2.03342400e+05 
     6017    6033    1       1.39860000e-01   2.96436400e+05 
     6018    6019    1       1.09470000e-01   2.90754528e+05 
     6018    6020    1       1.55780000e-01   1.78983152e+05 
     6018    6028    1       1.54250000e-01   1.87443200e+05 
     6020    6021    1       1.09470000e-01   2.90754528e+05 
     6020    6022    1       1.54250000e-01   1.87443200e+05 
     6020    6033    1       1.51590000e-01   2.03342400e+05 
     6022    6023    1       1.09540000e-01   2.89892624e+05 
     6022    6024    1       1.54250000e-01   1.87443200e+05 
     6022    6030    1       1.54830000e-01   1.84179680e+05 
     6024    6025    1       1.09470000e-01   2.90754528e+05 
     6024    6026    1       1.55780000e-01   1.78983152e+05 
     6026    6027    1       1.09470000e-01   2.90754528e+05 
     6028    6026    1       1.54250000e-01   1.87443200e+05 
     6028    6029    1       1.09540000e-01   2.89892624e+05 
     6028    6030    1       1.54830000e-01   1.84179680e+05 
     6030    6031    1       1.09540000e-01   2.89892624e+05 
     6030    6032    1       1.09540000e-01   2.89892624e+05 
     6033    6034    1       1.39860000e-01   2.96436400e+05 
     6034    6035    1       1.08600000e-01   3.01825392e+05 
     6036    6037    1       1.40560000e-01   2.89591376e+05 
     6036    6071    1       1.40560000e-01   2.89591376e+05 
     6037    6038    1       1.39860000e-01   2.96436400e+05 
     6038    6039    1       1.08600000e-01   3.01825392e+05 
     6038    6040    1       1.39860000e-01   2.96436400e+05 
     6040    6041    1       1.51590000e-01   2.03342400e+05 
     6040    6070    1       1.39860000e-01   2.96436400e+05 
     6041    6042    1       1.09470000e-01   2.90754528e+05 
     6041    6043    1       1.55780000e-01   1.78983152e+05 
     6041    6065    1       1.54250000e-01   1.87443200e+05 
     6043    6044    1       1.09470000e-01   2.90754528e+05 
     6043    6045    1       1.54250000e-01   1.87443200e+05 
     6043    6070    1       1.51590000e-01   2.03342400e+05 
     6045    6046    1       1.09540000e-01   2.89892624e+05 
     6045    6047    1       1.54250000e-01   1.87443200e+05 
     6045    6067    1       1.54830000e-01   1.84179680e+05 
     6047    6048    1       1.09470000e-01   2.90754528e+05 
     6047    6049    1       1.51590000e-01   2.03342400e+05 
     6047    6063    1       1.55780000e-01   1.78983152e+05 
     6049    6050    1       1.39860000e-01   2.96436400e+05 
     6049    6058    1       1.39860000e-01   2.96436400e+05 
     6050    6051    1       1.39860000e-01   2.96436400e+05 
     6050    6063    1       1.51590000e-01   2.03342400e+05 
     6051    6052    1       1.51470000e-01   2.04103888e+05 
     6051    6056    1       1.39860000e-01   2.96436400e+05 
     6052    6053    1       1.09620000e-01   2.88905200e+05 
     6052    6054    1       1.09620000e-01   2.88905200e+05 
     6052    6055    1       1.09620000e-01   2.88905200e+05 
     6056    1472    1       1.51590000e-01   2.03342400e+05 
     6056    6057    1       1.39860000e-01   2.96436400e+05 
     6057    1470    1       1.51590000e-01   2.03342400e+05 
     6057    6058    1       1.39860000e-01   2.96436400e+05 
     6058    6059    1       1.51470000e-01   2.04103888e+05 
     6059    6060    1       1.09620000e-01   2.88905200e+05 
     6059    6061    1       1.09620000e-01   2.88905200e+05 
     6059    6062    1       1.09620000e-01   2.88905200e+05 
     6063    6064    1       1.09470000e-01   2.90754528e+05 
     6063    6065    1       1.54250000e-01   1.87443200e+05 
     6065    6066    1       1.09540000e-01   2.89892624e+05 
     6065    6067    1       1.54830000e-01   1.84179680e+05 
     6067    6068    1       1.09540000e-01   2.89892624e+05 
     6067    6069    1       1.09540000e-01   2.89892624e+05 
     6070    6071    1       1.39860000e-01   2.96436400e+05 
     6071    6072    1       1.08600000e-01   3.01825392e+05 
     6073    6074    1       1.09620000e-01   2.88905200e+05 
     6073    6075    1       1.09620000e-01   2.88905200e+05 
     6073    6076    1       1.09620000e-01   2.88905200e+05 
     6073    6077    1       1.53720000e-01   1.90489152e+05 
     6077    6078    1       1.53720000e-01   1.90489152e+05 
     6077    6082    1       1.51510000e-01   2.03844480e+05 
     6077    6106    1       1.51510000e-01   2.03844480e+05 
     6078    6079    1       1.09620000e-01   2.88905200e+05 
     6078    6080    1       1.09620000e-01   2.88905200e+05 
     6078    6081    1       1.09620000e-01   2.88905200e+05 
     6082    6083    1       1.40560000e-01   2.89591376e+05 
     6082    6103    1       1.39860000e-01   2.96436400e+05 
     6083    6084    1       1.40560000e-01   2.89591376e+05 
     6083    6105    1       1.48290000e-01   2.25408816e+05 
     6084    6085    1       1.08600000e-01   3.01825392e+05 
     6084    6086    1       1.39860000e-01   2.96436400e+05 
     6086    6087    1       1.51590000e-01   2.03342400e+05 
     6086    6102    1       1.39860000e-01   2.96436400e+05 
     6087    6088    1       1.09470000e-01   2.90754528e+05 
     6087    6089    1       1.55780000e-01   1.78983152e+05 
     6087    6097    1       1.54250000e-01   1.87443200e+05 
     6089    6090    1       1.09470000e-01   2.90754528e+05 
     6089    6091    1       1.54250000e-01   1.87443200e+05 
     6089    6102    1       1.51590000e-01   2.03342400e+05 
     6091    6092    1       1.09540000e-01   2.89892624e+05 
     6091    6093    1       1.54250000e-01   1.87443200e+05 
     6091    6099    1       1.54830000e-01   1.84179680e+05 
     6093    6094    1       1.09470000e-01   2.90754528e+05 
     6093    6095    1       1.55780000e-01   1.78983152e+05 
     6095    6096    1       1.09470000e-01   2.90754528e+05 
     6097    6095    1       1.54250000e-01   1.87443200e+05 
     6097    6098    1       1.09540000e-01   2.89892624e+05 
     6097    6099    1       1.54830000e-01   1.84179680e+05 
     6099    6100    1       1.09540000e-01   2.89892624e+05 
     6099    6101    1       1.09540000e-01   2.89892624e+05 
     6102    6103    1       1.39860000e-01   2.96436400e+05 
     6103    6104    1       1.08600000e-01   3.01825392e+05 
     6105    6106    1       1.40560000e-01   2.89591376e+05 
     6105    6140    1       1.40560000e-01   2.89591376e+05 
     6106    6107    1       1.39860000e-01   2.96436400e+05 
     6107    6108    1       1.08600000e-01   3.01825392e+05 
     6107    6109    1       1.39860000e-01   2.96436400e+05 
     6109    6110    1       1.51590000e-01   2.03342400e+05 
     6109    6139    1       1.39860000e-01   2.96436400e+05 
     6110    6111    1       1.09470000e-01   2.90754528e+05 
     6110    6112    1       1.55780000e-01   1.78983152e+05 
     6110    6134    1       1.54250000e-01   1.87443200e+05 
     6112    6113    1       1.09470000e-01   2.90754528e+05 
     6112    6114    1       1.54250000e-01   1.87443200e+05 
     6112    6139    1       1.51590000e-01   2.03342400e+05 
     6114    6115    1       1.09540000e-01   2.89892624e+05 
     6114    6116    1       1.54250000e-01   1.87443200e+05 
     6114    6136    1       1.54830000e-01   1.84179680e+05 
     6116    6117    1       1.09470000e-01   2.90754528e+05 
     6116    6118    1       1.51590000e-01   2.03342400e+05 
     6116    6132    1       1.55780000e-01   1.78983152e+05 
     6118    6119    1       1.39860000e-01   2.96436400e+05 
     6118    6127    1       1.39860000e-01   2.96436400e+05 
     6119    6120    1       1.39860000e-01   2.96436400e+05 
     6119    6132    1       1.51590000e-01   2.03342400e+05 
     6120    6121    1       1.51470000e-01   2.04103888e+05 
     6120    6125    1       1.39860000e-01   2.96436400e+05 
     6121    6122    1       1.09620000e-01   2.88905200e+05 
     6121    6123    1       1.09620000e-01   2.88905200e+05 
     6121    6124    1       1.09620000e-01   2.88905200e+05 
     6125    1953    1       1.51590000e-01   2.03342400e+05 
     6125    6126    1       1.39860000e-01   2.96436400e+05 
     6126    1955    1       1.51590000e-01   2.03342400e+05 
     6126    6127    1       1.39860000e-01   2.96436400e+05 
     6127    6128    1       1.51470000e-01   2.04103888e+05 
     6128    6129    1       1.09620000e-01   2.88905200e+05 
     6128    6130    1       1.09620000e-01   2.88905200e+05 
     6128    6131    1       1.09620000e-01   2.88905200e+05 
     6132    6133    1       1.09470000e-01   2.90754528e+05 
     6132    6134    1       1.54250000e-01   1.87443200e+05 
     6134    6135    1       1.09540000e-01   2.89892624e+05 
     6134    6136    1       1.54830000e-01   1.84179680e+05 
     6136    6137    1       1.09540000e-01   2.89892624e+05 
     6136    6138    1       1.09540000e-01   2.89892624e+05 
     6139    6140    1       1.39860000e-01   2.96436400e+05 
     6140    6141    1       1.08600000e-01   3.01825392e+05 
     6142    6143    1       1.09620000e-01   2.88905200e+05 
     6142    6144    1       1.09620000e-01   2.88905200e+05 
     6142    6145    1       1.09620000e-01   2.88905200e+05 
     6142    6146    1       1.53720000e-01   1.90489152e+05 
     6146    6147    1       1.53720000e-01   1.90489152e+05 
     6146    6151    1       1.51510000e-01   2.03844480e+05 
     6146    6175    1       1.51510000e-01   2.03844480e+05 
     6147    6148    1       1.09620000e-01   2.88905200e+05 
     6147    6149    1       1.09620000e-01   2.88905200e+05 
     6147    6150    1       1.09620000e-01   2.88905200e+05 
     6151    6152    1       1.40560000e-01   2.89591376e+05 
     6151    6172    1       1.39860000e-01   2.96436400e+05 
     6152    6153    1       1.40560000e-01   2.89591376e+05 
     6152    6174    1       1.48290000e-01   2.25408816e+05 
     6153    6154    1       1.08600000e-01   3.01825392e+05 
     6153    6155    1       1.39860000e-01   2.96436400e+05 
     6155    6156    1       1.51590000e-01   2.03342400e+05 
     6155    6171    1       1.39860000e-01   2.96436400e+05 
     6156    6157    1       1.09470000e-01   2.90754528e+05 
     6156    6158    1       1.55780000e-01   1.78983152e+05 
     6156    6166    1       1.54250000e-01   1.87443200e+05 
     6158    6159    1       1.09470000e-01   2.90754528e+05 
     6158    6160    1       1.54250000e-01   1.87443200e+05 
     6158    6171    1       1.51590000e-01   2.03342400e+05 
     6160    6161    1       1.09540000e-01   2.89892624e+05 
     6160    6162    1       1.54830000e-01   1.84179680e+05 
     6160    6168    1       1.54830000e-01   1.84179680e+05 
     6162    6163    1       1.09540000e-01   2.89892624e+05 
     6162    6164    1       1.54830000e-01   1.84179680e+05 
     6164    6165    1       1.09540000e-01   2.89892624e+05 
     6164    6166    1       1.54830000e-01   1.84179680e+05 
     6166    6167    1       1.09540000e-01   2.89892624e+05 
     6166    6168    1       1.54830000e-01   1.84179680e+05 
     6168    6169    1       1.09540000e-01   2.89892624e+05 
     6168    6170    1       1.09540000e-01   2.89892624e+05 
     6171    6172    1       1.39860000e-01   2.96436400e+05 
     6172    6173    1       1.08600000e-01   3.01825392e+05 
     6174    6175    1       1.40560000e-01   2.89591376e+05 
     6174    6209    1       1.40560000e-01   2.89591376e+05 
     6175    6176    1       1.39860000e-01   2.96436400e+05 
     6176    6177    1       1.08600000e-01   3.01825392e+05 
     6176    6178    1       1.39860000e-01   2.96436400e+05 
     6178    6179    1       1.51590000e-01   2.03342400e+05 
     6178    6208    1       1.39860000e-01   2.96436400e+05 
     6179    6180    1       1.09470000e-01   2.90754528e+05 
     6179    6181    1       1.55780000e-01   1.78983152e+05 
     6179    6203    1       1.54250000e-01   1.87443200e+05 
     6181    6182    1       1.09470000e-01   2.90754528e+05 
     6181    6183    1       1.54250000e-01   1.87443200e+05 
     6181    6208    1       1.51590000e-01   2.03342400e+05 
     6183    6184    1       1.09540000e-01   2.89892624e+05 
     6183    6185    1       1.54250000e-01   1.87443200e+05 
     6183    6205    1       1.54830000e-01   1.84179680e+05 
     6185    6186    1       1.09470000e-01   2.90754528e+05 
     6185    6187    1       1.51590000e-01   2.03342400e+05 
     6185    6201    1       1.55780000e-01   1.78983152e+05 
     6187    6188    1       1.39860000e-01   2.96436400e+05 
     6187    6196    1       1.39860000e-01   2.96436400e+05 
     6188    6189    1       1.39860000e-01   2.96436400e+05 
     6188    6201    1       1.51590000e-01   2.03342400e+05 
     6189    6190    1       1.51470000e-01   2.04103888e+05 
     6189    6194    1       1.39860000e-01   2.96436400e+05 
     6190    6191    1       1.09620000e-01   2.88905200e+05 
     6190    6192    1       1.09620000e-01   2.88905200e+05 
     6190    6193    1       1.09620000e-01   2.88905200e+05 
     6194    849     1       1.51590000e-01   2.03342400e+05 
     6194    6195    1       1.39860000e-01   2.96436400e+05 
     6195    851     1       1.51590000e-01   2.03342400e+05 
     6195    6196    1       1.39860000e-01   2.96436400e+05 
     6196    6197    1       1.51470000e-01   2.04103888e+05 
     6197    6198    1       1.09620000e-01   2.88905200e+05 
     6197    6199    1       1.09620000e-01   2.88905200e+05 
     6197    6200    1       1.09620000e-01   2.88905200e+05 
     6201    6202    1       1.09470000e-01   2.90754528e+05 
     6201    6203    1       1.54250000e-01   1.87443200e+05 
     6203    6204    1       1.09540000e-01   2.89892624e+05 
     6203    6205    1       1.54830000e-01   1.84179680e+05 
     6205    6206    1       1.09540000e-01   2.89892624e+05 
     6205    6207    1       1.09540000e-01   2.89892624e+05 
     6208    6209    1       1.39860000e-01   2.96436400e+05 
     6209    6210    1       1.08600000e-01   3.01825392e+05 
     6211    6212    1       1.09620000e-01   2.88905200e+05 
     6211    6213    1       1.09620000e-01   2.88905200e+05 
     6211    6214    1       1.09620000e-01   2.88905200e+05 
     6211    6215    1       1.53720000e-01   1.90489152e+05 
     6215    6216    1       1.53720000e-01   1.90489152e+05 
     6215    6220    1       1.51510000e-01   2.03844480e+05 
     6215    6244    1       1.51510000e-01   2.03844480e+05 
     6216    6217    1       1.09620000e-01   2.88905200e+05 
     6216    6218    1       1.09620000e-01   2.88905200e+05 
     6216    6219    1       1.09620000e-01   2.88905200e+05 
     6220    6221    1       1.40560000e-01   2.89591376e+05 
     6220    6241    1       1.39860000e-01   2.96436400e+05 
     6221    6222    1       1.40560000e-01   2.89591376e+05 
     6221    6243    1       1.48290000e-01   2.25408816e+05 
     6222    6223    1       1.08600000e-01   3.01825392e+05 
     6222    6224    1       1.39860000e-01   2.96436400e+05 
     6224    6225    1       1.51590000e-01   2.03342400e+05 
     6224    6240    1       1.39860000e-01   2.96436400e+05 
     6225    6226    1       1.09470000e-01   2.90754528e+05 
     6225    6227    1       1.55780000e-01   1.78983152e+05 
     6225    6235    1       1.54250000e-01   1.87443200e+05 
     6227    6228    1       1.09470000e-01   2.90754528e+05 
     6227    6229    1       1.54250000e-01   1.87443200e+05 
     6227    6240    1       1.51590000e-01   2.03342400e+05 
     6229    6230    1       1.09540000e-01   2.89892624e+05 
     6229    6231    1       1.54250000e-01   1.87443200e+05 
     6229    6237    1       1.54830000e-01   1.84179680e+05 
     6231    6232    1       1.09470000e-01   2.90754528e+05 
     6231    6233    1       1.55780000e-01   1.78983152e+05 
     6233    6234    1       1.09470000e-01   2.90754528e+05 
     6235    6233    1       1.54250000e-01   1.87443200e+05 
     6235    6236    1       1.09540000e-01   2.89892624e+05 
     6235    6237    1       1.54830000e-01   1.84179680e+05 
     6237    6238    1       1.09540000e-01   2.89892624e+05 
     6237    6239    1       1.09540000e-01   2.89892624e+05 
     6240    6241    1       1.39860000e-01   2.96436400e+05 
     6241    6242    1       1.08600000e-01   3.01825392e+05 
     6243    6244    1       1.40560000e-01   2.89591376e+05 
     6243    6278    1       1.40560000e-01   2.89591376e+05 
     6244    6245    1       1.39860000e-01   2.96436400e+05 
     6245    6246    1       1.08600000e-01   3.01825392e+05 
     6245    6247    1       1.39860000e-01   2.96436400e+05 
     6247    6248    1       1.51590000e-01   2.03342400e+05 
     6247    6277    1       1.39860000e-01   2.96436400e+05 
     6248    6249    1       1.09470000e-01   2.90754528e+05 
     6248    6250    1       1.55780000e-01   1.78983152e+05 
     6248    6272    1       1.54250000e-01   1.87443200e+05 
     6250    6251    1       1.09470000e-01   2.90754528e+05 
     6250    6252    1       1.54250000e-01   1.87443200e+05 
     6250    6277    1       1.51590000e-01   2.03342400e+05 
     6252    6253    1       1.09540000e-01   2.89892624e+05 
     6252    6254    1       1.54250000e-01   1.87443200e+05 
     6252    6274    1       1.54830000e-01   1.84179680e+05 
     6254    6255    1       1.09470000e-01   2.90754528e+05 
     6254    6256    1       1.51590000e-01   2.03342400e+05 
     6254    6270    1       1.55780000e-01   1.78983152e+05 
     6256    6257    1       1.39860000e-01   2.96436400e+05 
     6256    6265    1       1.39860000e-01   2.96436400e+05 
     6257    6258    1       1.39860000e-01   2.96436400e+05 
     6257    6270    1       1.51590000e-01   2.03342400e+05 
     6258    6259    1       1.51470000e-01   2.04103888e+05 
     6258    6263    1       1.39860000e-01   2.96436400e+05 
     6259    6260    1       1.09620000e-01   2.88905200e+05 
     6259    6261    1       1.09620000e-01   2.88905200e+05 
     6259    6262    1       1.09620000e-01   2.88905200e+05 
     6263    4646    1       1.51590000e-01   2.03342400e+05 
     6263    6264    1       1.39860000e-01   2.96436400e+05 
     6264    4644    1       1.51590000e-01   2.03342400e+05 
     6264    6265    1       1.39860000e-01   2.96436400e+05 
     6265    6266    1       1.51470000e-01   2.04103888e+05 
     6266    6267    1       1.09620000e-01   2.88905200e+05 
     6266    6268    1       1.09620000e-01   2.88905200e+05 
     6266    6269    1       1.09620000e-01   2.88905200e+05 
     6270    6271    1       1.09470000e-01   2.90754528e+05 
     6270    6272    1       1.54250000e-01   1.87443200e+05 
     6272    6273    1       1.09540000e-01   2.89892624e+05 
     6272    6274    1       1.54830000e-01   1.84179680e+05 
     6274    6275    1       1.09540000e-01   2.89892624e+05 
     6274    6276    1       1.09540000e-01   2.89892624e+05 
     6277    6278    1       1.39860000e-01   2.96436400e+05 
     6278    6279    1       1.08600000e-01   3.01825392e+05 
     6280    6281    1       1.09620000e-01   2.88905200e+05 
     6280    6282    1       1.09620000e-01   2.88905200e+05 
     6280    6283    1       1.09620000e-01   2.88905200e+05 
     6280    6284    1       1.53720000e-01   1.90489152e+05 
     6284    6285    1       1.53720000e-01   1.90489152e+05 
     6284    6289    1       1.51510000e-01   2.03844480e+05 
     6284    6313    1       1.51510000e-01   2.03844480e+05 
     6285    6286    1       1.09620000e-01   2.88905200e+05 
     6285    6287    1       1.09620000e-01   2.88905200e+05 
     6285    6288    1       1.09620000e-01   2.88905200e+05 
     6289    6290    1       1.40560000e-01   2.89591376e+05 
     6289    6310    1       1.39860000e-01   2.96436400e+05 
     6290    6291    1       1.40560000e-01   2.89591376e+05 
     6290    6312    1       1.48290000e-01   2.25408816e+05 
     6291    6292    1       1.08600000e-01   3.01825392e+05 
     6291    6293    1       1.39860000e-01   2.96436400e+05 
     6293    6294    1       1.51590000e-01   2.03342400e+05 
     6293    6309    1       1.39860000e-01   2.96436400e+05 
     6294    6295    1       1.09470000e-01   2.90754528e+05 
     6294    6296    1       1.55780000e-01   1.78983152e+05 
     6294    6304    1       1.54250000e-01   1.87443200e+05 
     6296    6297    1       1.09470000e-01   2.90754528e+05 
     6296    6298    1       1.54250000e-01   1.87443200e+05 
     6296    6309    1       1.51590000e-01   2.03342400e+05 
     6298    6299    1       1.09540000e-01   2.89892624e+05 
     6298    6300    1       1.54250000e-01   1.87443200e+05 
     6298    6306    1       1.54830000e-01   1.84179680e+05 
     6300    6301    1       1.09470000e-01   2.90754528e+05 
     6300    6302    1       1.55780000e-01   1.78983152e+05 
     6302    6303    1       1.09470000e-01   2.90754528e+05 
     6304    6302    1       1.54250000e-01   1.87443200e+05 
     6304    6305    1       1.09540000e-01   2.89892624e+05 
     6304    6306    1       1.54830000e-01   1.84179680e+05 
     6306    6307    1       1.09540000e-01   2.89892624e+05 
     6306    6308    1       1.09540000e-01   2.89892624e+05 
     6309    6310    1       1.39860000e-01   2.96436400e+05 
     6310    6311    1       1.08600000e-01   3.01825392e+05 
     6312    6313    1       1.40560000e-01   2.89591376e+05 
     6312    6347    1       1.40560000e-01   2.89591376e+05 
     6313    6314    1       1.39860000e-01   2.96436400e+05 
     6314    6315    1       1.08600000e-01   3.01825392e+05 
     6314    6316    1       1.39860000e-01   2.96436400e+05 
     6316    6317    1       1.51590000e-01   2.03342400e+05 
     6316    6346    1       1.39860000e-01   2.96436400e+05 
     6317    6318    1       1.09470000e-01   2.90754528e+05 
     6317    6319    1       1.55780000e-01   1.78983152e+05 
     6317    6341    1       1.54250000e-01   1.87443200e+05 
     6319    6320    1       1.09470000e-01   2.90754528e+05 
     6319    6321    1       1.54250000e-01   1.87443200e+05 
     6319    6346    1       1.51590000e-01   2.03342400e+05 
     6321    6322    1       1.09540000e-01   2.89892624e+05 
     6321    6323    1       1.54250000e-01   1.87443200e+05 
     6321    6343    1       1.54830000e-01   1.84179680e+05 
     6323    6324    1       1.09470000e-01   2.90754528e+05 
     6323    6325    1       1.51590000e-01   2.03342400e+05 
     6323    6339    1       1.55780000e-01   1.78983152e+05 
     6325    6326    1       1.39860000e-01   2.96436400e+05 
     6325    6334    1       1.39860000e-01   2.96436400e+05 
     6326    6327    1       1.39860000e-01   2.96436400e+05 
     6326    6339    1       1.51590000e-01   2.03342400e+05 
     6327    6328    1       1.51470000e-01   2.04103888e+05 
     6327    6332    1       1.39860000e-01   2.96436400e+05 
     6328    6329    1       1.09620000e-01   2.88905200e+05 
     6328    6330    1       1.09620000e-01   2.88905200e+05 
     6328    6331    1       1.09620000e-01   2.88905200e+05 
     6332    3887    1       1.51590000e-01   2.03342400e+05 
     6332    6333    1       1.39860000e-01   2.96436400e+05 
     6333    3885    1       1.51590000e-01   2.03342400e+05 
     6333    6334    1       1.39860000e-01   2.96436400e+05 
     6334    6335    1       1.51470000e-01   2.04103888e+05 
     6335    6336    1       1.09620000e-01   2.88905200e+05 
     6335    6337    1       1.09620000e-01   2.88905200e+05 
     6335    6338    1       1.09620000e-01   2.88905200e+05 
     6339    6340    1       1.09470000e-01   2.90754528e+05 
     6339    6341    1       1.54250000e-01   1.87443200e+05 
     6341    6342    1       1.09540000e-01   2.89892624e+05 
     6341    6343    1       1.54830000e-01   1.84179680e+05 
     6343    6344    1       1.09540000e-01   2.89892624e+05 
     6343    6345    1       1.09540000e-01   2.89892624e+05 
     6346    6347    1       1.39860000e-01   2.96436400e+05 
     6347    6348    1       1.08600000e-01   3.01825392e+05 
     6349    6350    1       1.09620000e-01   2.88905200e+05 
     6349    6351    1       1.09620000e-01   2.88905200e+05 
     6349    6352    1       1.09620000e-01   2.88905200e+05 
     6349    6353    1       1.53720000e-01   1.90489152e+05 
     6353    6354    1       1.53720000e-01   1.90489152e+05 
     6353    6358    1       1.51510000e-01   2.03844480e+05 
     6353    6382    1       1.51510000e-01   2.03844480e+05 
     6354    6355    1       1.09620000e-01   2.88905200e+05 
     6354    6356    1       1.09620000e-01   2.88905200e+05 
     6354    6357    1       1.09620000e-01   2.88905200e+05 
     6358    6359    1       1.40560000e-01   2.89591376e+05 
     6358    6379    1       1.39860000e-01   2.96436400e+05 
     6359    6360    1       1.40560000e-01   2.89591376e+05 
     6359    6381    1       1.48290000e-01   2.25408816e+05 
     6360    6361    1       1.08600000e-01   3.01825392e+05 
     6360    6362    1       1.39860000e-01   2.96436400e+05 
     6362    6363    1       1.51590000e-01   2.03342400e+05 
     6362    6378    1       1.39860000e-01   2.96436400e+05 
     6363    6364    1       1.09470000e-01   2.90754528e+05 
     6363    6365    1       1.55780000e-01   1.78983152e+05 
     6363    6373    1       1.54250000e-01   1.87443200e+05 
     6365    6366    1       1.09470000e-01   2.90754528e+05 
     6365    6367    1       1.54250000e-01   1.87443200e+05 
     6365    6378    1       1.51590000e-01   2.03342400e+05 
     6367    6368    1       1.09540000e-01   2.89892624e+05 
     6367    6369    1       1.54250000e-01   1.87443200e+05 
     6367    6375    1       1.54830000e-01   1.84179680e+05 
     6369    6370    1       1.09470000e-01   2.90754528e+05 
     6369    6371    1       1.55780000e-01   1.78983152e+05 
     6371    6372    1       1.09470000e-01   2.90754528e+05 
     6373    6371    1       1.54250000e-01   1.87443200e+05 
     6373    6374    1       1.09540000e-01   2.89892624e+05 
     6373    6375    1       1.54830000e-01   1.84179680e+05 
     6375    6376    1       1.09540000e-01   2.89892624e+05 
     6375    6377    1       1.09540000e-01   2.89892624e+05 
     6378    6379    1       1.39860000e-01   2.96436400e+05 
     6379    6380    1       1.08600000e-01   3.01825392e+05 
     6381    6382    1       1.40560000e-01   2.89591376e+05 
     6381    6416    1       1.40560000e-01   2.89591376e+05 
     6382    6383    1       1.39860000e-01   2.96436400e+05 
     6383    6384    1       1.08600000e-01   3.01825392e+05 
     6383    6385    1       1.39860000e-01   2.96436400e+05 
     6385    6386    1       1.51590000e-01   2.03342400e+05 
     6385    6415    1       1.39860000e-01   2.96436400e+05 
     6386    6387    1       1.09470000e-01   2.90754528e+05 
     6386    6388    1       1.55780000e-01   1.78983152e+05 
     6386    6410    1       1.54250000e-01   1.87443200e+05 
     6388    6389    1       1.09470000e-01   2.90754528e+05 
     6388    6390    1       1.54250000e-01   1.87443200e+05 
     6388    6415    1       1.51590000e-01   2.03342400e+05 
     6390    6391    1       1.09540000e-01   2.89892624e+05 
     6390    6392    1       1.54250000e-01   1.87443200e+05 
     6390    6412    1       1.54830000e-01   1.84179680e+05 
     6392    6393    1       1.09470000e-01   2.90754528e+05 
     6392    6394    1       1.51590000e-01   2.03342400e+05 
     6392    6408    1       1.55780000e-01   1.78983152e+05 
     6394    6395    1       1.39860000e-01   2.96436400e+05 
     6394    6403    1       1.39860000e-01   2.96436400e+05 
     6395    6396    1       1.39860000e-01   2.96436400e+05 
     6395    6408    1       1.51590000e-01   2.03342400e+05 
     6396    6397    1       1.51470000e-01   2.04103888e+05 
     6396    6401    1       1.39860000e-01   2.96436400e+05 
     6397    6398    1       1.09620000e-01   2.88905200e+05 
     6397    6399    1       1.09620000e-01   2.88905200e+05 
     6397    6400    1       1.09620000e-01   2.88905200e+05 
     6401    4506    1       1.51590000e-01   2.03342400e+05 
     6401    6402    1       1.39860000e-01   2.96436400e+05 
     6402    4508    1       1.51590000e-01   2.03342400e+05 
     6402    6403    1       1.39860000e-01   2.96436400e+05 
     6403    6404    1       1.51470000e-01   2.04103888e+05 
     6404    6405    1       1.09620000e-01   2.88905200e+05 
     6404    6406    1       1.09620000e-01   2.88905200e+05 
     6404    6407    1       1.09620000e-01   2.88905200e+05 
     6408    6409    1       1.09470000e-01   2.90754528e+05 
     6408    6410    1       1.54250000e-01   1.87443200e+05 
     6410    6411    1       1.09540000e-01   2.89892624e+05 
     6410    6412    1       1.54830000e-01   1.84179680e+05 
     6412    6413    1       1.09540000e-01   2.89892624e+05 
     6412    6414    1       1.09540000e-01   2.89892624e+05 
     6415    6416    1       1.39860000e-01   2.96436400e+05 
     6416    6417    1       1.08600000e-01   3.01825392e+05 
     6418    6419    1       1.09620000e-01   2.88905200e+05 
     6418    6420    1       1.09620000e-01   2.88905200e+05 
     6418    6421    1       1.09620000e-01   2.88905200e+05 
     6418    6422    1       1.53720000e-01   1.90489152e+05 
     6422    6423    1       1.53720000e-01   1.90489152e+05 
     6422    6427    1       1.51510000e-01   2.03844480e+05 
     6422    6451    1       1.51510000e-01   2.03844480e+05 
     6423    6424    1       1.09620000e-01   2.88905200e+05 
     6423    6425    1       1.09620000e-01   2.88905200e+05 
     6423    6426    1       1.09620000e-01   2.88905200e+05 
     6427    6428    1       1.40560000e-01   2.89591376e+05 
     6427    6448    1       1.39860000e-01   2.96436400e+05 
     6428    6429    1       1.40560000e-01   2.89591376e+05 
     6428    6450    1       1.48290000e-01   2.25408816e+05 
     6429    6430    1       1.08600000e-01   3.01825392e+05 
     6429    6431    1       1.39860000e-01   2.96436400e+05 
     6431    6432    1       1.51590000e-01   2.03342400e+05 
     6431    6447    1       1.39860000e-01   2.96436400e+05 
     6432    6433    1       1.09470000e-01   2.90754528e+05 
     6432    6434    1       1.55780000e-01   1.78983152e+05 
     6432    6442    1       1.54250000e-01   1.87443200e+05 
     6434    6435    1       1.09470000e-01   2.90754528e+05 
     6434    6436    1       1.54250000e-01   1.87443200e+05 
     6434    6447    1       1.51590000e-01   2.03342400e+05 
     6436    6437    1       1.09540000e-01   2.89892624e+05 
     6436    6438    1       1.54250000e-01   1.87443200e+05 
     6436    6444    1       1.54830000e-01   1.84179680e+05 
     6438    6439    1       1.09470000e-01   2.90754528e+05 
     6438    6440    1       1.55780000e-01   1.78983152e+05 
     6440    6441    1       1.09470000e-01   2.90754528e+05 
     6442    6440    1       1.54250000e-01   1.87443200e+05 
     6442    6443    1       1.09540000e-01   2.89892624e+05 
     6442    6444    1       1.54830000e-01   1.84179680e+05 
     6444    6445    1       1.09540000e-01   2.89892624e+05 
     6444    6446    1       1.09540000e-01   2.89892624e+05 
     6447    6448    1       1.39860000e-01   2.96436400e+05 
     6448    6449    1       1.08600000e-01   3.01825392e+05 
     6450    6451    1       1.40560000e-01   2.89591376e+05 
     6450    6485    1       1.40560000e-01   2.89591376e+05 
     6451    6452    1       1.39860000e-01   2.96436400e+05 
     6452    6453    1       1.08600000e-01   3.01825392e+05 
     6452    6454    1       1.39860000e-01   2.96436400e+05 
     6454    6455    1       1.51590000e-01   2.03342400e+05 
     6454    6484    1       1.39860000e-01   2.96436400e+05 
     6455    6456    1       1.09470000e-01   2.90754528e+05 
     6455    6457    1       1.55780000e-01   1.78983152e+05 
     6455    6479    1       1.54250000e-01   1.87443200e+05 
     6457    6458    1       1.09470000e-01   2.90754528e+05 
     6457    6459    1       1.54250000e-01   1.87443200e+05 
     6457    6484    1       1.51590000e-01   2.03342400e+05 
     6459    6460    1       1.09540000e-01   2.89892624e+05 
     6459    6461    1       1.54250000e-01   1.87443200e+05 
     6459    6481    1       1.54830000e-01   1.84179680e+05 
     6461    6462    1       1.09470000e-01   2.90754528e+05 
     6461    6463    1       1.51590000e-01   2.03342400e+05 
     6461    6477    1       1.55780000e-01   1.78983152e+05 
     6463    6464    1       1.39860000e-01   2.96436400e+05 
     6463    6472    1       1.39860000e-01   2.96436400e+05 
     6464    6465    1       1.39860000e-01   2.96436400e+05 
     6464    6477    1       1.51590000e-01   2.03342400e+05 
     6465    6466    1       1.51470000e-01   2.04103888e+05 
     6465    6470    1       1.39860000e-01   2.96436400e+05 
     6466    6467    1       1.09620000e-01   2.88905200e+05 
     6466    6468    1       1.09620000e-01   2.88905200e+05 
     6466    6469    1       1.09620000e-01   2.88905200e+05 
     6470    1679    1       1.51590000e-01   2.03342400e+05 
     6470    6471    1       1.39860000e-01   2.96436400e+05 
     6471    1677    1       1.51590000e-01   2.03342400e+05 
     6471    6472    1       1.39860000e-01   2.96436400e+05 
     6472    6473    1       1.51470000e-01   2.04103888e+05 
     6473    6474    1       1.09620000e-01   2.88905200e+05 
     6473    6475    1       1.09620000e-01   2.88905200e+05 
     6473    6476    1       1.09620000e-01   2.88905200e+05 
     6477    6478    1       1.09470000e-01   2.90754528e+05 
     6477    6479    1       1.54250000e-01   1.87443200e+05 
     6479    6480    1       1.09540000e-01   2.89892624e+05 
     6479    6481    1       1.54830000e-01   1.84179680e+05 
     6481    6482    1       1.09540000e-01   2.89892624e+05 
     6481    6483    1       1.09540000e-01   2.89892624e+05 
     6484    6485    1       1.39860000e-01   2.96436400e+05 
     6485    6486    1       1.08600000e-01   3.01825392e+05 
     6487    6488    1       1.09620000e-01   2.88905200e+05 
     6487    6489    1       1.09620000e-01   2.88905200e+05 
     6487    6490    1       1.09620000e-01   2.88905200e+05 
     6487    6491    1       1.53720000e-01   1.90489152e+05 
     6491    6492    1       1.53720000e-01   1.90489152e+05 
     6491    6496    1       1.51510000e-01   2.03844480e+05 
     6491    6520    1       1.51510000e-01   2.03844480e+05 
     6492    6493    1       1.09620000e-01   2.88905200e+05 
     6492    6494    1       1.09620000e-01   2.88905200e+05 
     6492    6495    1       1.09620000e-01   2.88905200e+05 
     6496    6497    1       1.40560000e-01   2.89591376e+05 
     6496    6517    1       1.39860000e-01   2.96436400e+05 
     6497    6498    1       1.40560000e-01   2.89591376e+05 
     6497    6519    1       1.48290000e-01   2.25408816e+05 
     6498    6499    1       1.08600000e-01   3.01825392e+05 
     6498    6500    1       1.39860000e-01   2.96436400e+05 
     6500    6501    1       1.51590000e-01   2.03342400e+05 
     6500    6516    1       1.39860000e-01   2.96436400e+05 
     6501    6502    1       1.09470000e-01   2.90754528e+05 
     6501    6503    1       1.55780000e-01   1.78983152e+05 
     6501    6511    1       1.54250000e-01   1.87443200e+05 
     6503    6504    1       1.09470000e-01   2.90754528e+05 
     6503    6505    1       1.54250000e-01   1.87443200e+05 
     6503    6516    1       1.51590000e-01   2.03342400e+05 
     6505    6506    1       1.09540000e-01   2.89892624e+05 
     6505    6507    1       1.54250000e-01   1.87443200e+05 
     6505    6513    1       1.54830000e-01   1.84179680e+05 
     6507    6508    1       1.09470000e-01   2.90754528e+05 
     6507    6509    1       1.55780000e-01   1.78983152e+05 
     6509    6510    1       1.09470000e-01   2.90754528e+05 
     6511    6509    1       1.54250000e-01   1.87443200e+05 
     6511    6512    1       1.09540000e-01   2.89892624e+05 
     6511    6513    1       1.54830000e-01   1.84179680e+05 
     6513    6514    1       1.09540000e-01   2.89892624e+05 
     6513    6515    1       1.09540000e-01   2.89892624e+05 
     6516    6517    1       1.39860000e-01   2.96436400e+05 
     6517    6518    1       1.08600000e-01   3.01825392e+05 
     6519    6520    1       1.40560000e-01   2.89591376e+05 
     6519    6554    1       1.40560000e-01   2.89591376e+05 
     6520    6521    1       1.39860000e-01   2.96436400e+05 
     6521    6522    1       1.08600000e-01   3.01825392e+05 
     6521    6523    1       1.39860000e-01   2.96436400e+05 
     6523    6524    1       1.51590000e-01   2.03342400e+05 
     6523    6553    1       1.39860000e-01   2.96436400e+05 
     6524    6525    1       1.09470000e-01   2.90754528e+05 
     6524    6526    1       1.55780000e-01   1.78983152e+05 
     6524    6548    1       1.54250000e-01   1.87443200e+05 
     6526    6527    1       1.09470000e-01   2.90754528e+05 
     6526    6528    1       1.54250000e-01   1.87443200e+05 
     6526    6553    1       1.51590000e-01   2.03342400e+05 
     6528    6529    1       1.09540000e-01   2.89892624e+05 
     6528    6530    1       1.54250000e-01   1.87443200e+05 
     6528    6550    1       1.54830000e-01   1.84179680e+05 
     6530    6531    1       1.09470000e-01   2.90754528e+05 
     6530    6532    1       1.51590000e-01   2.03342400e+05 
     6530    6546    1       1.55780000e-01   1.78983152e+05 
     6532    6533    1       1.39860000e-01   2.96436400e+05 
     6532    6541    1       1.39860000e-01   2.96436400e+05 
     6533    6534    1       1.39860000e-01   2.96436400e+05 
     6533    6546    1       1.51590000e-01   2.03342400e+05 
     6534    6535    1       1.51470000e-01   2.04103888e+05 
     6534    6539    1       1.39860000e-01   2.96436400e+05 
     6535    6536    1       1.09620000e-01   2.88905200e+05 
     6535    6537    1       1.09620000e-01   2.88905200e+05 
     6535    6538    1       1.09620000e-01   2.88905200e+05 
     6539    6540    1       1.39860000e-01   2.96436400e+05 
     6540    6541    1       1.39860000e-01   2.96436400e+05 
     6541    6542    1       1.51470000e-01   2.04103888e+05 
     6542    6543    1       1.09620000e-01   2.88905200e+05 
     6542    6544    1       1.09620000e-01   2.88905200e+05 
     6542    6545    1       1.09620000e-01   2.88905200e+05 
     6546    6547    1       1.09470000e-01   2.90754528e+05 
     6546    6548    1       1.54250000e-01   1.87443200e+05 
     6548    6549    1       1.09540000e-01   2.89892624e+05 
     6548    6550    1       1.54830000e-01   1.84179680e+05 
     6550    6551    1       1.09540000e-01   2.89892624e+05 
     6550    6552    1       1.09540000e-01   2.89892624e+05 
     6553    6554    1       1.39860000e-01   2.96436400e+05 
     6554    6555    1       1.08600000e-01   3.01825392e+05 
     6556    6557    1       1.09620000e-01   2.88905200e+05 
     6556    6558    1       1.09620000e-01   2.88905200e+05 
     6556    6559    1       1.09620000e-01   2.88905200e+05 
     6556    6560    1       1.53720000e-01   1.90489152e+05 
     6560    6561    1       1.53720000e-01   1.90489152e+05 
     6560    6565    1       1.51510000e-01   2.03844480e+05 
     6560    6589    1       1.51510000e-01   2.03844480e+05 
     6561    6562    1       1.09620000e-01   2.88905200e+05 
     6561    6563    1       1.09620000e-01   2.88905200e+05 
     6561    6564    1       1.09620000e-01   2.88905200e+05 
     6565    6566    1       1.40560000e-01   2.89591376e+05 
     6565    6586    1       1.39860000e-01   2.96436400e+05 
     6566    6567    1       1.40560000e-01   2.89591376e+05 
     6566    6588    1       1.48290000e-01   2.25408816e+05 
     6567    6568    1       1.08600000e-01   3.01825392e+05 
     6567    6569    1       1.39860000e-01   2.96436400e+05 
     6569    6570    1       1.51590000e-01   2.03342400e+05 
     6569    6585    1       1.39860000e-01   2.96436400e+05 
     6570    6571    1       1.09470000e-01   2.90754528e+05 
     6570    6572    1       1.55780000e-01   1.78983152e+05 
     6570    6580    1       1.54250000e-01   1.87443200e+05 
     6572    6573    1       1.09470000e-01   2.90754528e+05 
     6572    6574    1       1.54250000e-01   1.87443200e+05 
     6572    6585    1       1.51590000e-01   2.03342400e+05 
     6574    6575    1       1.09540000e-01   2.89892624e+05 
     6574    6576    1       1.54250000e-01   1.87443200e+05 
     6574    6582    1       1.54830000e-01   1.84179680e+05 
     6576    6577    1       1.09470000e-01   2.90754528e+05 
     6576    6578    1       1.55780000e-01   1.78983152e+05 
     6578    6579    1       1.09470000e-01   2.90754528e+05 
     6580    6578    1       1.54250000e-01   1.87443200e+05 
     6580    6581    1       1.09540000e-01   2.89892624e+05 
     6580    6582    1       1.54830000e-01   1.84179680e+05 
     6582    6583    1       1.09540000e-01   2.89892624e+05 
     6582    6584    1       1.09540000e-01   2.89892624e+05 
     6585    6586    1       1.39860000e-01   2.96436400e+05 
     6586    6587    1       1.08600000e-01   3.01825392e+05 
     6588    6589    1       1.40560000e-01   2.89591376e+05 
     6588    6623    1       1.40560000e-01   2.89591376e+05 
     6589    6590    1       1.39860000e-01   2.96436400e+05 
     6590    6591    1       1.08600000e-01   3.01825392e+05 
     6590    6592    1       1.39860000e-01   2.96436400e+05 
     6592    6593    1       1.51590000e-01   2.03342400e+05 
     6592    6622    1       1.39860000e-01   2.96436400e+05 
     6593    6594    1       1.09470000e-01   2.90754528e+05 
     6593    6595    1       1.55780000e-01   1.78983152e+05 
     6593    6617    1       1.54250000e-01   1.87443200e+05 
     6595    6596    1       1.09470000e-01   2.90754528e+05 
     6595    6597    1       1.54250000e-01   1.87443200e+05 
     6595    6622    1       1.51590000e-01   2.03342400e+05 
     6597    6598    1       1.09540000e-01   2.89892624e+05 
     6597    6599    1       1.54250000e-01   1.87443200e+05 
     6597    6619    1       1.54830000e-01   1.84179680e+05 
     6599    6600    1       1.09470000e-01   2.90754528e+05 
     6599    6601    1       1.51590000e-01   2.03342400e+05 
     6599    6615    1       1.55780000e-01   1.78983152e+05 
     6601    6602    1       1.39860000e-01   2.96436400e+05 
     6601    6610    1       1.39860000e-01   2.96436400e+05 
     6602    6603    1       1.39860000e-01   2.96436400e+05 
     6602    6615    1       1.51590000e-01   2.03342400e+05 
     6603    6604    1       1.51470000e-01   2.04103888e+05 
     6603    6608    1       1.39860000e-01   2.96436400e+05 
     6604    6605    1       1.09620000e-01   2.88905200e+05 
     6604    6606    1       1.09620000e-01   2.88905200e+05 
     6604    6607    1       1.09620000e-01   2.88905200e+05 
     6608    2298    1       1.51590000e-01   2.03342400e+05 
     6608    6609    1       1.39860000e-01   2.96436400e+05 
     6609    2300    1       1.51590000e-01   2.03342400e+05 
     6609    6610    1       1.39860000e-01   2.96436400e+05 
     6610    6611    1       1.51470000e-01   2.04103888e+05 
     6611    6612    1       1.09620000e-01   2.88905200e+05 
     6611    6613    1       1.09620000e-01   2.88905200e+05 
     6611    6614    1       1.09620000e-01   2.88905200e+05 
     6615    6616    1       1.09470000e-01   2.90754528e+05 
     6615    6617    1       1.54250000e-01   1.87443200e+05 
     6617    6618    1       1.09540000e-01   2.89892624e+05 
     6617    6619    1       1.54830000e-01   1.84179680e+05 
     6619    6620    1       1.09540000e-01   2.89892624e+05 
     6619    6621    1       1.09540000e-01   2.89892624e+05 
     6622    6623    1       1.39860000e-01   2.96436400e+05 
     6623    6624    1       1.08600000e-01   3.01825392e+05 
     6625    6626    1       1.09620000e-01   2.88905200e+05 
     6625    6627    1       1.09620000e-01   2.88905200e+05 
     6625    6628    1       1.09620000e-01   2.88905200e+05 
     6625    6629    1       1.53720000e-01   1.90489152e+05 
     6629    6630    1       1.53720000e-01   1.90489152e+05 
     6629    6634    1       1.51510000e-01   2.03844480e+05 
     6629    6658    1       1.51510000e-01   2.03844480e+05 
     6630    6631    1       1.09620000e-01   2.88905200e+05 
     6630    6632    1       1.09620000e-01   2.88905200e+05 
     6630    6633    1       1.09620000e-01   2.88905200e+05 
     6634    6635    1       1.40560000e-01   2.89591376e+05 
     6634    6655    1       1.39860000e-01   2.96436400e+05 
     6635    6636    1       1.40560000e-01   2.89591376e+05 
     6635    6657    1       1.48290000e-01   2.25408816e+05 
     6636    6637    1       1.08600000e-01   3.01825392e+05 
     6636    6638    1       1.39860000e-01   2.96436400e+05 
     6638    6639    1       1.51590000e-01   2.03342400e+05 
     6638    6654    1       1.39860000e-01   2.96436400e+05 
     6639    6640    1       1.09470000e-01   2.90754528e+05 
     6639    6641    1       1.55780000e-01   1.78983152e+05 
     6639    6649    1       1.54250000e-01   1.87443200e+05 
     6641    6642    1       1.09470000e-01   2.90754528e+05 
     6641    6643    1       1.54250000e-01   1.87443200e+05 
     6641    6654    1       1.51590000e-01   2.03342400e+05 
     6643    6644    1       1.09540000e-01   2.89892624e+05 
     6643    6645    1       1.54250000e-01   1.87443200e+05 
     6643    6651    1       1.54830000e-01   1.84179680e+05 
     6645    6646    1       1.09470000e-01   2.90754528e+05 
     6645    6647    1       1.55780000e-01   1.78983152e+05 
     6647    6648    1       1.09470000e-01   2.90754528e+05 
     6649    6647    1       1.54250000e-01   1.87443200e+05 
     6649    6650    1       1.09540000e-01   2.89892624e+05 
     6649    6651    1       1.54830000e-01   1.84179680e+05 
     6651    6652    1       1.09540000e-01   2.89892624e+05 
     6651    6653    1       1.09540000e-01   2.89892624e+05 
     6654    6655    1       1.39860000e-01   2.96436400e+05 
     6655    6656    1       1.08600000e-01   3.01825392e+05 
     6657    6658    1       1.40560000e-01   2.89591376e+05 
     6657    6692    1       1.40560000e-01   2.89591376e+05 
     6658    6659    1       1.39860000e-01   2.96436400e+05 
     6659    6660    1       1.08600000e-01   3.01825392e+05 
     6659    6661    1       1.39860000e-01   2.96436400e+05 
     6661    6662    1       1.51590000e-01   2.03342400e+05 
     6661    6691    1       1.39860000e-01   2.96436400e+05 
     6662    6663    1       1.09470000e-01   2.90754528e+05 
     6662    6664    1       1.55780000e-01   1.78983152e+05 
     6662    6686    1       1.54250000e-01   1.87443200e+05 
     6664    6665    1       1.09470000e-01   2.90754528e+05 
     6664    6666    1       1.54250000e-01   1.87443200e+05 
     6664    6691    1       1.51590000e-01   2.03342400e+05 
     6666    6667    1       1.09540000e-01   2.89892624e+05 
     6666    6668    1       1.54250000e-01   1.87443200e+05 
     6666    6688    1       1.54830000e-01   1.84179680e+05 
     6668    6669    1       1.09470000e-01   2.90754528e+05 
     6668    6670    1       1.51590000e-01   2.03342400e+05 
     6668    6684    1       1.55780000e-01   1.78983152e+05 
     6670    6671    1       1.39860000e-01   2.96436400e+05 
     6670    6679    1       1.39860000e-01   2.96436400e+05 
     6671    6672    1       1.39860000e-01   2.96436400e+05 
     6671    6684    1       1.51590000e-01   2.03342400e+05 
     6672    6673    1       1.51470000e-01   2.04103888e+05 
     6672    6677    1       1.39860000e-01   2.96436400e+05 
     6673    6674    1       1.09620000e-01   2.88905200e+05 
     6673    6675    1       1.09620000e-01   2.88905200e+05 
     6673    6676    1       1.09620000e-01   2.88905200e+05 
     6677    506     1       1.51590000e-01   2.03342400e+05 
     6677    6678    1       1.39860000e-01   2.96436400e+05 
     6678    504     1       1.51590000e-01   2.03342400e+05 
     6678    6679    1       1.39860000e-01   2.96436400e+05 
     6679    6680    1       1.51470000e-01   2.04103888e+05 
     6680    6681    1       1.09620000e-01   2.88905200e+05 
     6680    6682    1       1.09620000e-01   2.88905200e+05 
     6680    6683    1       1.09620000e-01   2.88905200e+05 
     6684    6685    1       1.09470000e-01   2.90754528e+05 
     6684    6686    1       1.54250000e-01   1.87443200e+05 
     6686    6687    1       1.09540000e-01   2.89892624e+05 
     6686    6688    1       1.54830000e-01   1.84179680e+05 
     6688    6689    1       1.09540000e-01   2.89892624e+05 
     6688    6690    1       1.09540000e-01   2.89892624e+05 
     6691    6692    1       1.39860000e-01   2.96436400e+05 
     6692    6693    1       1.08600000e-01   3.01825392e+05 
     6694    6695    1       1.09620000e-01   2.88905200e+05 
     6694    6696    1       1.09620000e-01   2.88905200e+05 
     6694    6697    1       1.09620000e-01   2.88905200e+05 
     6694    6698    1       1.53720000e-01   1.90489152e+05 
     6698    6699    1       1.53720000e-01   1.90489152e+05 
     6698    6703    1       1.51510000e-01   2.03844480e+05 
     6698    6727    1       1.51510000e-01   2.03844480e+05 
     6699    6700    1       1.09620000e-01   2.88905200e+05 
     6699    6701    1       1.09620000e-01   2.88905200e+05 
     6699    6702    1       1.09620000e-01   2.88905200e+05 
     6703    6704    1       1.40560000e-01   2.89591376e+05 
     6703    6724    1       1.39860000e-01   2.96436400e+05 
     6704    6705    1       1.40560000e-01   2.89591376e+05 
     6704    6726    1       1.48290000e-01   2.25408816e+05 
     6705    6706    1       1.08600000e-01   3.01825392e+05 
     6705    6707    1       1.39860000e-01   2.96436400e+05 
     6707    6708    1       1.51590000e-01   2.03342400e+05 
     6707    6723    1       1.39860000e-01   2.96436400e+05 
     6708    6709    1       1.09470000e-01   2.90754528e+05 
     6708    6710    1       1.55780000e-01   1.78983152e+05 
     6708    6718    1       1.54250000e-01   1.87443200e+05 
     6710    6711    1       1.09470000e-01   2.90754528e+05 
     6710    6712    1       1.54250000e-01   1.87443200e+05 
     6710    6723    1       1.51590000e-01   2.03342400e+05 
     6712    6713    1       1.09540000e-01   2.89892624e+05 
     6712    6714    1       1.54250000e-01   1.87443200e+05 
     6712    6720    1       1.54830000e-01   1.84179680e+05 
     6714    6715    1       1.09470000e-01   2.90754528e+05 
     6714    6716    1       1.55780000e-01   1.78983152e+05 
     6716    6717    1       1.09470000e-01   2.90754528e+05 
     6718    6716    1       1.54250000e-01   1.87443200e+05 
     6718    6719    1       1.09540000e-01   2.89892624e+05 
     6718    6720    1       1.54830000e-01   1.84179680e+05 
     6720    6721    1       1.09540000e-01   2.89892624e+05 
     6720    6722    1       1.09540000e-01   2.89892624e+05 
     6723    6724    1       1.39860000e-01   2.96436400e+05 
     6724    6725    1       1.08600000e-01   3.01825392e+05 
     6726    6727    1       1.40560000e-01   2.89591376e+05 
     6726    6761    1       1.40560000e-01   2.89591376e+05 
     6727    6728    1       1.39860000e-01   2.96436400e+05 
     6728    6729    1       1.08600000e-01   3.01825392e+05 
     6728    6730    1       1.39860000e-01   2.96436400e+05 
     6730    6731    1       1.51590000e-01   2.03342400e+05 
     6730    6760    1       1.39860000e-01   2.96436400e+05 
     6731    6732    1       1.09470000e-01   2.90754528e+05 
     6731    6733    1       1.55780000e-01   1.78983152e+05 
     6731    6755    1       1.54250000e-01   1.87443200e+05 
     6733    6734    1       1.09470000e-01   2.90754528e+05 
     6733    6735    1       1.54250000e-01   1.87443200e+05 
     6733    6760    1       1.51590000e-01   2.03342400e+05 
     6735    6736    1       1.09540000e-01   2.89892624e+05 
     6735    6737    1       1.54250000e-01   1.87443200e+05 
     6735    6757    1       1.54830000e-01   1.84179680e+05 
     6737    6738    1       1.09470000e-01   2.90754528e+05 
     6737    6739    1       1.51590000e-01   2.03342400e+05 
     6737    6753    1       1.55780000e-01   1.78983152e+05 
     6739    6740    1       1.39860000e-01   2.96436400e+05 
     6739    6748    1       1.39860000e-01   2.96436400e+05 
     6740    6741    1       1.39860000e-01   2.96436400e+05 
     6740    6753    1       1.51590000e-01   2.03342400e+05 
     6741    6742    1       1.51470000e-01   2.04103888e+05 
     6741    6746    1       1.39860000e-01   2.96436400e+05 
     6742    6743    1       1.09620000e-01   2.88905200e+05 
     6742    6744    1       1.09620000e-01   2.88905200e+05 
     6742    6745    1       1.09620000e-01   2.88905200e+05 
     6746    4715    1       1.51590000e-01   2.03342400e+05 
     6746    6747    1       1.39860000e-01   2.96436400e+05 
     6747    4713    1       1.51590000e-01   2.03342400e+05 
     6747    6748    1       1.39860000e-01   2.96436400e+05 
     6748    6749    1       1.51470000e-01   2.04103888e+05 
     6749    6750    1       1.09620000e-01   2.88905200e+05 
     6749    6751    1       1.09620000e-01   2.88905200e+05 
     6749    6752    1       1.09620000e-01   2.88905200e+05 
     6753    6754    1       1.09470000e-01   2.90754528e+05 
     6753    6755    1       1.54250000e-01   1.87443200e+05 
     6755    6756    1       1.09540000e-01   2.89892624e+05 
     6755    6757    1       1.54830000e-01   1.84179680e+05 
     6757    6758    1       1.09540000e-01   2.89892624e+05 
     6757    6759    1       1.09540000e-01   2.89892624e+05 
     6760    6761    1       1.39860000e-01   2.96436400e+05 
     6761    6762    1       1.08600000e-01   3.01825392e+05 
     6763    6764    1       1.09620000e-01   2.88905200e+05 
     6763    6765    1       1.09620000e-01   2.88905200e+05 
     6763    6766    1       1.09620000e-01   2.88905200e+05 
     6763    6767    1       1.53720000e-01   1.90489152e+05 
     6767    6768    1       1.53720000e-01   1.90489152e+05 
     6767    6772    1       1.51510000e-01   2.03844480e+05 
     6767    6796    1       1.51510000e-01   2.03844480e+05 
     6768    6769    1       1.09620000e-01   2.88905200e+05 
     6768    6770    1       1.09620000e-01   2.88905200e+05 
     6768    6771    1       1.09620000e-01   2.88905200e+05 
     6772    6773    1       1.40560000e-01   2.89591376e+05 
     6772    6793    1       1.39860000e-01   2.96436400e+05 
     6773    6774    1       1.40560000e-01   2.89591376e+05 
     6773    6795    1       1.48290000e-01   2.25408816e+05 
     6774    6775    1       1.08600000e-01   3.01825392e+05 
     6774    6776    1       1.39860000e-01   2.96436400e+05 
     6776    6777    1       1.51590000e-01   2.03342400e+05 
     6776    6792    1       1.39860000e-01   2.96436400e+05 
     6777    6778    1       1.09470000e-01   2.90754528e+05 
     6777    6779    1       1.55780000e-01   1.78983152e+05 
     6777    6787    1       1.54250000e-01   1.87443200e+05 
     6779    6780    1       1.09470000e-01   2.90754528e+05 
     6779    6781    1       1.54250000e-01   1.87443200e+05 
     6779    6792    1       1.51590000e-01   2.03342400e+05 
     6781    6782    1       1.09540000e-01   2.89892624e+05 
     6781    6783    1       1.54250000e-01   1.87443200e+05 
     6781    6789    1       1.54830000e-01   1.84179680e+05 
     6783    6784    1       1.09470000e-01   2.90754528e+05 
     6783    6785    1       1.55780000e-01   1.78983152e+05 
     6785    6786    1       1.09470000e-01   2.90754528e+05 
     6787    6785    1       1.54250000e-01   1.87443200e+05 
     6787    6788    1       1.09540000e-01   2.89892624e+05 
     6787    6789    1       1.54830000e-01   1.84179680e+05 
     6789    6790    1       1.09540000e-01   2.89892624e+05 
     6789    6791    1       1.09540000e-01   2.89892624e+05 
     6792    6793    1       1.39860000e-01   2.96436400e+05 
     6793    6794    1       1.08600000e-01   3.01825392e+05 
     6795    6796    1       1.40560000e-01   2.89591376e+05 
     6795    6830    1       1.40560000e-01   2.89591376e+05 
     6796    6797    1       1.39860000e-01   2.96436400e+05 
     6797    6798    1       1.08600000e-01   3.01825392e+05 
     6797    6799    1       1.39860000e-01   2.96436400e+05 
     6799    6800    1       1.51590000e-01   2.03342400e+05 
     6799    6829    1       1.39860000e-01   2.96436400e+05 
     6800    6801    1       1.09470000e-01   2.90754528e+05 
     6800    6802    1       1.55780000e-01   1.78983152e+05 
     6800    6824    1       1.54250000e-01   1.87443200e+05 
     6802    6803    1       1.09470000e-01   2.90754528e+05 
     6802    6804    1       1.54250000e-01   1.87443200e+05 
     6802    6829    1       1.51590000e-01   2.03342400e+05 
     6804    6805    1       1.09540000e-01   2.89892624e+05 
     6804    6806    1       1.54250000e-01   1.87443200e+05 
     6804    6826    1       1.54830000e-01   1.84179680e+05 
     6806    6807    1       1.09470000e-01   2.90754528e+05 
     6806    6808    1       1.51590000e-01   2.03342400e+05 
     6806    6822    1       1.55780000e-01   1.78983152e+05 
     6808    6809    1       1.39860000e-01   2.96436400e+05 
     6808    6817    1       1.39860000e-01   2.96436400e+05 
     6809    6810    1       1.39860000e-01   2.96436400e+05 
     6809    6822    1       1.51590000e-01   2.03342400e+05 
     6810    6811    1       1.51470000e-01   2.04103888e+05 
     6810    6815    1       1.39860000e-01   2.96436400e+05 
     6811    6812    1       1.09620000e-01   2.88905200e+05 
     6811    6813    1       1.09620000e-01   2.88905200e+05 
     6811    6814    1       1.09620000e-01   2.88905200e+05 
     6815    23      1       1.51590000e-01   2.03342400e+05 
     6815    6816    1       1.39860000e-01   2.96436400e+05 
     6816    21      1       1.51590000e-01   2.03342400e+05 
     6816    6817    1       1.39860000e-01   2.96436400e+05 
     6817    6818    1       1.51470000e-01   2.04103888e+05 
     6818    6819    1       1.09620000e-01   2.88905200e+05 
     6818    6820    1       1.09620000e-01   2.88905200e+05 
     6818    6821    1       1.09620000e-01   2.88905200e+05 
     6822    6823    1       1.09470000e-01   2.90754528e+05 
     6822    6824    1       1.54250000e-01   1.87443200e+05 
     6824    6825    1       1.09540000e-01   2.89892624e+05 
     6824    6826    1       1.54830000e-01   1.84179680e+05 
     6826    6827    1       1.09540000e-01   2.89892624e+05 
     6826    6828    1       1.09540000e-01   2.89892624e+05 
     6829    6830    1       1.39860000e-01   2.96436400e+05 
     6830    6831    1       1.08600000e-01   3.01825392e+05 
     6832    6833    1       1.09620000e-01   2.88905200e+05 
     6832    6834    1       1.09620000e-01   2.88905200e+05 
     6832    6835    1       1.09620000e-01   2.88905200e+05 
     6832    6836    1       1.53720000e-01   1.90489152e+05 
     6836    6837    1       1.53720000e-01   1.90489152e+05 
     6836    6841    1       1.51510000e-01   2.03844480e+05 
     6836    6865    1       1.51510000e-01   2.03844480e+05 
     6837    6838    1       1.09620000e-01   2.88905200e+05 
     6837    6839    1       1.09620000e-01   2.88905200e+05 
     6837    6840    1       1.09620000e-01   2.88905200e+05 
     6841    6842    1       1.40560000e-01   2.89591376e+05 
     6841    6862    1       1.39860000e-01   2.96436400e+05 
     6842    6843    1       1.40560000e-01   2.89591376e+05 
     6842    6864    1       1.48290000e-01   2.25408816e+05 
     6843    6844    1       1.08600000e-01   3.01825392e+05 
     6843    6845    1       1.39860000e-01   2.96436400e+05 
     6845    6846    1       1.51590000e-01   2.03342400e+05 
     6845    6861    1       1.39860000e-01   2.96436400e+05 
     6846    6847    1       1.09470000e-01   2.90754528e+05 
     6846    6848    1       1.55780000e-01   1.78983152e+05 
     6846    6856    1       1.54250000e-01   1.87443200e+05 
     6848    6849    1       1.09470000e-01   2.90754528e+05 
     6848    6850    1       1.54250000e-01   1.87443200e+05 
     6848    6861    1       1.51590000e-01   2.03342400e+05 
     6850    6851    1       1.09540000e-01   2.89892624e+05 
     6850    6852    1       1.54250000e-01   1.87443200e+05 
     6850    6858    1       1.54830000e-01   1.84179680e+05 
     6852    6853    1       1.09470000e-01   2.90754528e+05 
     6852    6854    1       1.55780000e-01   1.78983152e+05 
     6854    6855    1       1.09470000e-01   2.90754528e+05 
     6856    6854    1       1.54250000e-01   1.87443200e+05 
     6856    6857    1       1.09540000e-01   2.89892624e+05 
     6856    6858    1       1.54830000e-01   1.84179680e+05 
     6858    6859    1       1.09540000e-01   2.89892624e+05 
     6858    6860    1       1.09540000e-01   2.89892624e+05 
     6861    6862    1       1.39860000e-01   2.96436400e+05 
     6862    6863    1       1.08600000e-01   3.01825392e+05 
     6864    6865    1       1.40560000e-01   2.89591376e+05 
     6864    6899    1       1.40560000e-01   2.89591376e+05 
     6865    6866    1       1.39860000e-01   2.96436400e+05 
     6866    6867    1       1.08600000e-01   3.01825392e+05 
     6866    6868    1       1.39860000e-01   2.96436400e+05 
     6868    6869    1       1.51590000e-01   2.03342400e+05 
     6868    6898    1       1.39860000e-01   2.96436400e+05 
     6869    6870    1       1.09470000e-01   2.90754528e+05 
     6869    6871    1       1.55780000e-01   1.78983152e+05 
     6869    6893    1       1.54250000e-01   1.87443200e+05 
     6871    6872    1       1.09470000e-01   2.90754528e+05 
     6871    6873    1       1.54250000e-01   1.87443200e+05 
     6871    6898    1       1.51590000e-01   2.03342400e+05 
     6873    6874    1       1.09540000e-01   2.89892624e+05 
     6873    6875    1       1.54250000e-01   1.87443200e+05 
     6873    6895    1       1.54830000e-01   1.84179680e+05 
     6875    6876    1       1.09470000e-01   2.90754528e+05 
     6875    6877    1       1.51590000e-01   2.03342400e+05 
     6875    6891    1       1.55780000e-01   1.78983152e+05 
     6877    6878    1       1.39860000e-01   2.96436400e+05 
     6877    6886    1       1.39860000e-01   2.96436400e+05 
     6878    6879    1       1.39860000e-01   2.96436400e+05 
     6878    6891    1       1.51590000e-01   2.03342400e+05 
     6879    6880    1       1.51470000e-01   2.04103888e+05 
     6879    6884    1       1.39860000e-01   2.96436400e+05 
     6880    6881    1       1.09620000e-01   2.88905200e+05 
     6880    6882    1       1.09620000e-01   2.88905200e+05 
     6880    6883    1       1.09620000e-01   2.88905200e+05 
     6884    4784    1       1.51590000e-01   2.03342400e+05 
     6884    6885    1       1.39860000e-01   2.96436400e+05 
     6885    4782    1       1.51590000e-01   2.03342400e+05 
     6885    6886    1       1.39860000e-01   2.96436400e+05 
     6886    6887    1       1.51470000e-01   2.04103888e+05 
     6887    6888    1       1.09620000e-01   2.88905200e+05 
     6887    6889    1       1.09620000e-01   2.88905200e+05 
     6887    6890    1       1.09620000e-01   2.88905200e+05 
     6891    6892    1       1.09470000e-01   2.90754528e+05 
     6891    6893    1       1.54250000e-01   1.87443200e+05 
     6893    6894    1       1.09540000e-01   2.89892624e+05 
     6893    6895    1       1.54830000e-01   1.84179680e+05 
     6895    6896    1       1.09540000e-01   2.89892624e+05 
     6895    6897    1       1.09540000e-01   2.89892624e+05 
     6898    6899    1       1.39860000e-01   2.96436400e+05 
     6899    6900    1       1.08600000e-01   3.01825392e+05 

[ angles ]
;   ai     aj     ak     funct  theta    cth
      1       5       6 1       1.10280000e+02    5.05761920e+02
      1       5      10 1       1.13070000e+02    5.03000480e+02
      1       5      34 1       1.13070000e+02    5.03000480e+02
      2       1       3 1       1.07730000e+02    2.99574400e+02
      2       1       4 1       1.07730000e+02    2.99574400e+02
      2       1       5 1       1.10530000e+02    3.60326080e+02
      3       1       4 1       1.07730000e+02    2.99574400e+02
      3       1       5 1       1.10530000e+02    3.60326080e+02
      4       1       5 1       1.10530000e+02    3.60326080e+02
      5       6       7 1       1.10530000e+02    3.60326080e+02
      5       6       8 1       1.10530000e+02    3.60326080e+02
      5       6       9 1       1.10530000e+02    3.60326080e+02
      5      10      11 1       1.10210000e+02    5.31033280e+02
      5      10      31 1       1.21870000e+02    5.06012960e+02
      5      34      33 1       1.10210000e+02    5.31033280e+02
      5      34      35 1       1.21870000e+02    5.06012960e+02
      6       5      10 1       1.13070000e+02    5.03000480e+02
      6       5      34 1       1.13070000e+02    5.03000480e+02
      7       6       8 1       1.07730000e+02    2.99574400e+02
      7       6       9 1       1.07730000e+02    2.99574400e+02
      8       6       9 1       1.07730000e+02    2.99574400e+02
     10       5      34 1       1.12520000e+02    5.08021280e+02
     10      11      12 1       1.18410000e+02    5.33794720e+02
     10      11      33 1       1.21100000e+02    5.12958400e+02
     10      31      30 1       1.20020000e+02    5.32790560e+02
     10      31      32 1       1.19880000e+02    3.75723200e+02
     11      10      31 1       1.20730000e+02    5.29945440e+02
     11      12      13 1       1.19820000e+02    3.74300640e+02
     11      12      14 1       1.20730000e+02    5.29945440e+02
     11      33      34 1       1.21100000e+02    5.12958400e+02
     11      33      68 1       1.21100000e+02    5.12958400e+02
     12      11      33 1       1.21100000e+02    5.12958400e+02
     12      14      15 1       1.20640000e+02    5.08439680e+02
     12      14      30 1       1.20020000e+02    5.32790560e+02
     13      12      14 1       1.19880000e+02    3.75723200e+02
     14      15      16 1       1.14530000e+02    3.58485120e+02
     14      15      17 1       1.16810000e+02    4.91368960e+02
     14      15      25 1       1.24830000e+02    4.77729120e+02
     14      30      17 1       1.20640000e+02    5.08439680e+02
     14      30      31 1       1.20020000e+02    5.32790560e+02
     15      14      30 1       1.20640000e+02    5.08439680e+02
     15      17      18 1       1.14760000e+02    3.49364000e+02
     15      17      19 1       1.22490000e+02    4.75804480e+02
     15      17      30 1       1.16810000e+02    4.91368960e+02
     15      25      23 1       9.60300000e+01    5.40070720e+02
     15      25      26 1       1.12000000e+02    3.56811520e+02
     15      25      27 1       1.03090000e+02    5.20322240e+02
     16      15      17 1       1.14760000e+02    3.49364000e+02
     16      15      25 1       1.13690000e+02    3.54217440e+02
     17      15      25 1       1.22490000e+02    4.75804480e+02
     17      19      20 1       1.12000000e+02    3.56811520e+02
     17      19      21 1       9.60300000e+01    5.40070720e+02
     17      19      27 1       1.03090000e+02    5.20322240e+02
     17      30      31 1       1.20640000e+02    5.08439680e+02
     18      17      19 1       1.13690000e+02    3.54217440e+02
     18      17      30 1       1.14530000e+02    3.58485120e+02
     19      17      30 1       1.24830000e+02    4.77729120e+02
     19      21      22 1       1.13690000e+02    3.54217440e+02
     19      21      23 1       1.22490000e+02    4.75804480e+02
     19      21    6816 1       1.24830000e+02    4.77729120e+02
     19      27      25 1       1.03830000e+02    5.17477120e+02
     19      27      28 1       1.11170000e+02    3.56895200e+02
     19      27      29 1       1.11170000e+02    3.56895200e+02
     20      19      27 1       1.11170000e+02    3.56895200e+02
     21      19      20 1       1.12000000e+02    3.56811520e+02
     21      23      24 1       1.14760000e+02    3.49364000e+02
     23      21      22 1       1.14760000e+02    3.49364000e+02
     23      25      26 1       1.12000000e+02    3.56811520e+02
     25      23      21 1       1.22490000e+02    4.75804480e+02
     25      23      24 1       1.13690000e+02    3.54217440e+02
     25      23    6815 1       1.24830000e+02    4.77729120e+02
     25      27      28 1       1.11170000e+02    3.56895200e+02
     25      27      29 1       1.11170000e+02    3.56895200e+02
     26      25      27 1       1.11170000e+02    3.56895200e+02
     27      19      21 1       1.03090000e+02    5.20322240e+02
     27      25      23 1       1.03090000e+02    5.20322240e+02
     28      27      29 1       1.07220000e+02    3.00494880e+02
     30      31      32 1       1.19880000e+02    3.75723200e+02
     33      34      35 1       1.20730000e+02    5.29945440e+02
     33      68      67 1       1.20730000e+02    5.29945440e+02
     33      68      69 1       1.19820000e+02    3.74300640e+02
     34      33      68 1       1.18410000e+02    5.33794720e+02
     34      35      36 1       1.19880000e+02    3.75723200e+02
     34      35      37 1       1.20020000e+02    5.32790560e+02
     35      37      38 1       1.20640000e+02    5.08439680e+02
     35      37      67 1       1.20020000e+02    5.32790560e+02
     36      35      37 1       1.19880000e+02    3.75723200e+02
     37      38      39 1       1.14530000e+02    3.58485120e+02
     37      38      40 1       1.16810000e+02    4.91368960e+02
     37      38      62 1       1.24830000e+02    4.77729120e+02
     37      67      40 1       1.20640000e+02    5.08439680e+02
     37      67      68 1       1.20020000e+02    5.32790560e+02
     38      37      67 1       1.20640000e+02    5.08439680e+02
     38      40      41 1       1.14760000e+02    3.49364000e+02
     38      40      42 1       1.22490000e+02    4.75804480e+02
     38      40      67 1       1.16810000e+02    4.91368960e+02
     38      62      60 1       9.60300000e+01    5.40070720e+02
     38      62      63 1       1.12000000e+02    3.56811520e+02
     38      62      64 1       1.03090000e+02    5.20322240e+02
     39      38      40 1       1.14760000e+02    3.49364000e+02
     39      38      62 1       1.13690000e+02    3.54217440e+02
     40      38      62 1       1.22490000e+02    4.75804480e+02
     40      42      43 1       1.12000000e+02    3.56811520e+02
     40      42      44 1       9.60300000e+01    5.40070720e+02
     40      42      64 1       1.03090000e+02    5.20322240e+02
     40      67      68 1       1.20640000e+02    5.08439680e+02
     41      40      42 1       1.13690000e+02    3.54217440e+02
     41      40      67 1       1.14530000e+02    3.58485120e+02
     42      40      67 1       1.24830000e+02    4.77729120e+02
     42      44      45 1       1.13690000e+02    3.54217440e+02
     42      44      46 1       1.24830000e+02    4.77729120e+02
     42      44      60 1       1.22490000e+02    4.75804480e+02
     42      64      62 1       1.03830000e+02    5.17477120e+02
     42      64      65 1       1.11170000e+02    3.56895200e+02
     42      64      66 1       1.11170000e+02    3.56895200e+02
     43      42      44 1       1.12000000e+02    3.56811520e+02
     43      42      64 1       1.11170000e+02    3.56895200e+02
     44      42      64 1       1.03090000e+02    5.20322240e+02
     44      46      47 1       1.20640000e+02    5.08439680e+02
     44      46      55 1       1.20640000e+02    5.08439680e+02
     44      60      47 1       1.16810000e+02    4.91368960e+02
     44      60      61 1       1.14760000e+02    3.49364000e+02
     44      60      62 1       1.22490000e+02    4.75804480e+02
     45      44      46 1       1.14530000e+02    3.58485120e+02
     45      44      60 1       1.14760000e+02    3.49364000e+02
     46      44      60 1       1.16810000e+02    4.91368960e+02
     46      47      48 1       1.20020000e+02    5.32790560e+02
     46      47      60 1       1.20640000e+02    5.08439680e+02
     46      55      54 1       1.20020000e+02    5.32790560e+02
     46      55      56 1       1.20830000e+02    5.08272320e+02
     47      46      55 1       1.20020000e+02    5.32790560e+02
     47      48      49 1       1.20830000e+02    5.08272320e+02
     47      48      53 1       1.20020000e+02    5.32790560e+02
     47      60      61 1       1.14530000e+02    3.58485120e+02
     47      60      62 1       1.24830000e+02    4.77729120e+02
     48      47      60 1       1.20640000e+02    5.08439680e+02
     48      49      50 1       1.10630000e+02    3.64928480e+02
     48      49      51 1       1.10630000e+02    3.64928480e+02
     48      49      52 1       1.10630000e+02    3.64928480e+02
     48      53      54 1       1.20020000e+02    5.32790560e+02
     48      53     918 1       1.20640000e+02    5.08439680e+02
     49      48      53 1       1.20830000e+02    5.08272320e+02
     50      49      51 1       1.07730000e+02    2.99574400e+02
     50      49      52 1       1.07730000e+02    2.99574400e+02
     51      49      52 1       1.07730000e+02    2.99574400e+02
     53      54      55 1       1.20020000e+02    5.32790560e+02
     53      54     920 1       1.20640000e+02    5.08439680e+02
     53     918     919 1       1.14530000e+02    3.58485120e+02
     53     918     920 1       1.16810000e+02    4.91368960e+02
     54      53     918 1       1.20640000e+02    5.08439680e+02
     54     920     918 1       1.16810000e+02    4.91368960e+02
     54     920     921 1       1.14530000e+02    3.58485120e+02
     55      54     920 1       1.20640000e+02    5.08439680e+02
     55      56      57 1       1.10630000e+02    3.64928480e+02
     55      56      58 1       1.10630000e+02    3.64928480e+02
     55      56      59 1       1.10630000e+02    3.64928480e+02
     56      55      54 1       1.20830000e+02    5.08272320e+02
     57      56      58 1       1.07730000e+02    2.99574400e+02
     57      56      59 1       1.07730000e+02    2.99574400e+02
     58      56      59 1       1.07730000e+02    2.99574400e+02
     60      62      63 1       1.12000000e+02    3.56811520e+02
     60      62      64 1       1.03090000e+02    5.20322240e+02
     61      60      62 1       1.13690000e+02    3.54217440e+02
     62      64      65 1       1.11170000e+02    3.56895200e+02
     62      64      66 1       1.11170000e+02    3.56895200e+02
     63      62      64 1       1.11170000e+02    3.56895200e+02
     65      64      66 1       1.07220000e+02    3.00494880e+02
     67      68      69 1       1.19880000e+02    3.75723200e+02
     70      74      75 1       1.10280000e+02    5.05761920e+02
     70      74      79 1       1.13070000e+02    5.03000480e+02
     70      74     103 1       1.13070000e+02    5.03000480e+02
     71      70      72 1       1.07730000e+02    2.99574400e+02
     71      70      73 1       1.07730000e+02    2.99574400e+02
     71      70      74 1       1.10530000e+02    3.60326080e+02
     72      70      73 1       1.07730000e+02    2.99574400e+02
     72      70      74 1       1.10530000e+02    3.60326080e+02
     73      70      74 1       1.10530000e+02    3.60326080e+02
     74      75      76 1       1.10530000e+02    3.60326080e+02
     74      75      77 1       1.10530000e+02    3.60326080e+02
     74      75      78 1       1.10530000e+02    3.60326080e+02
     74      79      80 1       1.10210000e+02    5.31033280e+02
     74      79     100 1       1.21870000e+02    5.06012960e+02
     74     103     102 1       1.10210000e+02    5.31033280e+02
     74     103     104 1       1.21870000e+02    5.06012960e+02
     75      74      79 1       1.13070000e+02    5.03000480e+02
     75      74     103 1       1.13070000e+02    5.03000480e+02
     76      75      77 1       1.07730000e+02    2.99574400e+02
     76      75      78 1       1.07730000e+02    2.99574400e+02
     77      75      78 1       1.07730000e+02    2.99574400e+02
     79      74     103 1       1.12520000e+02    5.08021280e+02
     79      80      81 1       1.18410000e+02    5.33794720e+02
     79      80     102 1       1.21100000e+02    5.12958400e+02
     79     100      99 1       1.20020000e+02    5.32790560e+02
     79     100     101 1       1.19880000e+02    3.75723200e+02
     80      79     100 1       1.20730000e+02    5.29945440e+02
     80      81      82 1       1.19820000e+02    3.74300640e+02
     80      81      83 1       1.20730000e+02    5.29945440e+02
     80     102     103 1       1.21100000e+02    5.12958400e+02
     80     102     137 1       1.21100000e+02    5.12958400e+02
     81      80     102 1       1.21100000e+02    5.12958400e+02
     81      83      84 1       1.20640000e+02    5.08439680e+02
     81      83      99 1       1.20020000e+02    5.32790560e+02
     82      81      83 1       1.19880000e+02    3.75723200e+02
     83      84      85 1       1.14530000e+02    3.58485120e+02
     83      84      86 1       1.16810000e+02    4.91368960e+02
     83      84      94 1       1.24830000e+02    4.77729120e+02
     83      99      86 1       1.20640000e+02    5.08439680e+02
     83      99     100 1       1.20020000e+02    5.32790560e+02
     84      83      99 1       1.20640000e+02    5.08439680e+02
     84      86      87 1       1.14760000e+02    3.49364000e+02
     84      86      88 1       1.22490000e+02    4.75804480e+02
     84      86      99 1       1.16810000e+02    4.91368960e+02
     84      94      92 1       9.60300000e+01    5.40070720e+02
     84      94      95 1       1.12000000e+02    3.56811520e+02
     84      94      96 1       1.03090000e+02    5.20322240e+02
     85      84      86 1       1.14760000e+02    3.49364000e+02
     85      84      94 1       1.13690000e+02    3.54217440e+02
     86      84      94 1       1.22490000e+02    4.75804480e+02
     86      88      89 1       1.12000000e+02    3.56811520e+02
     86      88      90 1       9.60300000e+01    5.40070720e+02
     86      88      96 1       1.03090000e+02    5.20322240e+02
     86      99     100 1       1.20640000e+02    5.08439680e+02
     87      86      88 1       1.13690000e+02    3.54217440e+02
     87      86      99 1       1.14530000e+02    3.58485120e+02
     88      86      99 1       1.24830000e+02    4.77729120e+02
     88      90      91 1       1.13690000e+02    3.54217440e+02
     88      90      92 1       1.22490000e+02    4.75804480e+02
     88      90    5711 1       1.24830000e+02    4.77729120e+02
     88      96      94 1       1.03830000e+02    5.17477120e+02
     88      96      97 1       1.11170000e+02    3.56895200e+02
     88      96      98 1       1.11170000e+02    3.56895200e+02
     89      88      96 1       1.11170000e+02    3.56895200e+02
     90      88      89 1       1.12000000e+02    3.56811520e+02
     90      92      93 1       1.14760000e+02    3.49364000e+02
     92      90      91 1       1.14760000e+02    3.49364000e+02
     92      94      95 1       1.12000000e+02    3.56811520e+02
     94      92      90 1       1.22490000e+02    4.75804480e+02
     94      92      93 1       1.13690000e+02    3.54217440e+02
     94      92    5712 1       1.24830000e+02    4.77729120e+02
     94      96      97 1       1.11170000e+02    3.56895200e+02
     94      96      98 1       1.11170000e+02    3.56895200e+02
     95      94      96 1       1.11170000e+02    3.56895200e+02
     96      88      90 1       1.03090000e+02    5.20322240e+02
     96      94      92 1       1.03090000e+02    5.20322240e+02
     97      96      98 1       1.07220000e+02    3.00494880e+02
     99     100     101 1       1.19880000e+02    3.75723200e+02
    102     103     104 1       1.20730000e+02    5.29945440e+02
    102     137     136 1       1.20730000e+02    5.29945440e+02
    102     137     138 1       1.19820000e+02    3.74300640e+02
    103     102     137 1       1.18410000e+02    5.33794720e+02
    103     104     105 1       1.19880000e+02    3.75723200e+02
    103     104     106 1       1.20020000e+02    5.32790560e+02
    104     106     107 1       1.20640000e+02    5.08439680e+02
    104     106     136 1       1.20020000e+02    5.32790560e+02
    105     104     106 1       1.19880000e+02    3.75723200e+02
    106     107     108 1       1.14530000e+02    3.58485120e+02
    106     107     109 1       1.16810000e+02    4.91368960e+02
    106     107     131 1       1.24830000e+02    4.77729120e+02
    106     136     109 1       1.20640000e+02    5.08439680e+02
    106     136     137 1       1.20020000e+02    5.32790560e+02
    107     106     136 1       1.20640000e+02    5.08439680e+02
    107     109     110 1       1.14760000e+02    3.49364000e+02
    107     109     111 1       1.22490000e+02    4.75804480e+02
    107     109     136 1       1.16810000e+02    4.91368960e+02
    107     131     129 1       9.60300000e+01    5.40070720e+02
    107     131     132 1       1.12000000e+02    3.56811520e+02
    107     131     133 1       1.03090000e+02    5.20322240e+02
    108     107     109 1       1.14760000e+02    3.49364000e+02
    108     107     131 1       1.13690000e+02    3.54217440e+02
    109     107     131 1       1.22490000e+02    4.75804480e+02
    109     111     112 1       1.12000000e+02    3.56811520e+02
    109     111     113 1       9.60300000e+01    5.40070720e+02
    109     111     133 1       1.03090000e+02    5.20322240e+02
    109     136     137 1       1.20640000e+02    5.08439680e+02
    110     109     111 1       1.13690000e+02    3.54217440e+02
    110     109     136 1       1.14530000e+02    3.58485120e+02
    111     109     136 1       1.24830000e+02    4.77729120e+02
    111     113     114 1       1.13690000e+02    3.54217440e+02
    111     113     115 1       1.24830000e+02    4.77729120e+02
    111     113     129 1       1.22490000e+02    4.75804480e+02
    111     133     131 1       1.03830000e+02    5.17477120e+02
    111     133     134 1       1.11170000e+02    3.56895200e+02
    111     133     135 1       1.11170000e+02    3.56895200e+02
    112     111     113 1       1.12000000e+02    3.56811520e+02
    112     111     133 1       1.11170000e+02    3.56895200e+02
    113     111     133 1       1.03090000e+02    5.20322240e+02
    113     115     116 1       1.20640000e+02    5.08439680e+02
    113     115     124 1       1.20640000e+02    5.08439680e+02
    113     129     116 1       1.16810000e+02    4.91368960e+02
    113     129     130 1       1.14760000e+02    3.49364000e+02
    113     129     131 1       1.22490000e+02    4.75804480e+02
    114     113     115 1       1.14530000e+02    3.58485120e+02
    114     113     129 1       1.14760000e+02    3.49364000e+02
    115     113     129 1       1.16810000e+02    4.91368960e+02
    115     116     117 1       1.20020000e+02    5.32790560e+02
    115     116     129 1       1.20640000e+02    5.08439680e+02
    115     124     123 1       1.20020000e+02    5.32790560e+02
    115     124     125 1       1.20830000e+02    5.08272320e+02
    116     115     124 1       1.20020000e+02    5.32790560e+02
    116     117     118 1       1.20830000e+02    5.08272320e+02
    116     117     122 1       1.20020000e+02    5.32790560e+02
    116     129     130 1       1.14530000e+02    3.58485120e+02
    116     129     131 1       1.24830000e+02    4.77729120e+02
    117     116     129 1       1.20640000e+02    5.08439680e+02
    117     118     119 1       1.10630000e+02    3.64928480e+02
    117     118     120 1       1.10630000e+02    3.64928480e+02
    117     118     121 1       1.10630000e+02    3.64928480e+02
    117     122     123 1       1.20020000e+02    5.32790560e+02
    118     117     122 1       1.20830000e+02    5.08272320e+02
    119     118     120 1       1.07730000e+02    2.99574400e+02
    119     118     121 1       1.07730000e+02    2.99574400e+02
    120     118     121 1       1.07730000e+02    2.99574400e+02
    122     123     124 1       1.20020000e+02    5.32790560e+02
    123     124     125 1       1.20830000e+02    5.08272320e+02
    124     125     126 1       1.10630000e+02    3.64928480e+02
    124     125     127 1       1.10630000e+02    3.64928480e+02
    124     125     128 1       1.10630000e+02    3.64928480e+02
    126     125     127 1       1.07730000e+02    2.99574400e+02
    126     125     128 1       1.07730000e+02    2.99574400e+02
    127     125     128 1       1.07730000e+02    2.99574400e+02
    129     131     132 1       1.12000000e+02    3.56811520e+02
    129     131     133 1       1.03090000e+02    5.20322240e+02
    130     129     131 1       1.13690000e+02    3.54217440e+02
    131     133     134 1       1.11170000e+02    3.56895200e+02
    131     133     135 1       1.11170000e+02    3.56895200e+02
    132     131     133 1       1.11170000e+02    3.56895200e+02
    134     133     135 1       1.07220000e+02    3.00494880e+02
    136     137     138 1       1.19880000e+02    3.75723200e+02
    139     143     144 1       1.10280000e+02    5.05761920e+02
    139     143     148 1       1.13070000e+02    5.03000480e+02
    139     143     172 1       1.13070000e+02    5.03000480e+02
    140     139     141 1       1.07730000e+02    2.99574400e+02
    140     139     142 1       1.07730000e+02    2.99574400e+02
    140     139     143 1       1.10530000e+02    3.60326080e+02
    141     139     142 1       1.07730000e+02    2.99574400e+02
    141     139     143 1       1.10530000e+02    3.60326080e+02
    142     139     143 1       1.10530000e+02    3.60326080e+02
    143     144     145 1       1.10530000e+02    3.60326080e+02
    143     144     146 1       1.10530000e+02    3.60326080e+02
    143     144     147 1       1.10530000e+02    3.60326080e+02
    143     148     149 1       1.10210000e+02    5.31033280e+02
    143     148     169 1       1.21870000e+02    5.06012960e+02
    143     172     171 1       1.10210000e+02    5.31033280e+02
    143     172     173 1       1.21870000e+02    5.06012960e+02
    144     143     148 1       1.13070000e+02    5.03000480e+02
    144     143     172 1       1.13070000e+02    5.03000480e+02
    145     144     146 1       1.07730000e+02    2.99574400e+02
    145     144     147 1       1.07730000e+02    2.99574400e+02
    146     144     147 1       1.07730000e+02    2.99574400e+02
    148     143     172 1       1.12520000e+02    5.08021280e+02
    148     149     150 1       1.18410000e+02    5.33794720e+02
    148     149     171 1       1.21100000e+02    5.12958400e+02
    148     169     168 1       1.20020000e+02    5.32790560e+02
    148     169     170 1       1.19880000e+02    3.75723200e+02
    149     148     169 1       1.20730000e+02    5.29945440e+02
    149     150     151 1       1.19820000e+02    3.74300640e+02
    149     150     152 1       1.20730000e+02    5.29945440e+02
    149     171     172 1       1.21100000e+02    5.12958400e+02
    149     171     206 1       1.21100000e+02    5.12958400e+02
    150     149     171 1       1.21100000e+02    5.12958400e+02
    150     152     153 1       1.20640000e+02    5.08439680e+02
    150     152     168 1       1.20020000e+02    5.32790560e+02
    151     150     152 1       1.19880000e+02    3.75723200e+02
    152     153     154 1       1.14530000e+02    3.58485120e+02
    152     153     155 1       1.16810000e+02    4.91368960e+02
    152     153     163 1       1.24830000e+02    4.77729120e+02
    152     168     155 1       1.20640000e+02    5.08439680e+02
    152     168     169 1       1.20020000e+02    5.32790560e+02
    153     152     168 1       1.20640000e+02    5.08439680e+02
    153     155     156 1       1.14760000e+02    3.49364000e+02
    153     155     157 1       1.22490000e+02    4.75804480e+02
    153     155     168 1       1.16810000e+02    4.91368960e+02
    153     163     161 1       9.60300000e+01    5.40070720e+02
    153     163     164 1       1.12000000e+02    3.56811520e+02
    153     163     165 1       1.03090000e+02    5.20322240e+02
    154     153     155 1       1.14760000e+02    3.49364000e+02
    154     153     163 1       1.13690000e+02    3.54217440e+02
    155     153     163 1       1.22490000e+02    4.75804480e+02
    155     157     158 1       1.12000000e+02    3.56811520e+02
    155     157     159 1       9.60300000e+01    5.40070720e+02
    155     157     165 1       1.03090000e+02    5.20322240e+02
    155     168     169 1       1.20640000e+02    5.08439680e+02
    156     155     157 1       1.13690000e+02    3.54217440e+02
    156     155     168 1       1.14530000e+02    3.58485120e+02
    157     155     168 1       1.24830000e+02    4.77729120e+02
    157     159     160 1       1.13690000e+02    3.54217440e+02
    157     159     161 1       1.22490000e+02    4.75804480e+02
    157     159     881 1       1.24830000e+02    4.77729120e+02
    157     165     163 1       1.03830000e+02    5.17477120e+02
    157     165     166 1       1.11170000e+02    3.56895200e+02
    157     165     167 1       1.11170000e+02    3.56895200e+02
    158     157     165 1       1.11170000e+02    3.56895200e+02
    159     157     158 1       1.12000000e+02    3.56811520e+02
    159     161     162 1       1.14760000e+02    3.49364000e+02
    161     159     160 1       1.14760000e+02    3.49364000e+02
    161     163     164 1       1.12000000e+02    3.56811520e+02
    163     161     159 1       1.22490000e+02    4.75804480e+02
    163     161     162 1       1.13690000e+02    3.54217440e+02
    163     161     882 1       1.24830000e+02    4.77729120e+02
    163     165     166 1       1.11170000e+02    3.56895200e+02
    163     165     167 1       1.11170000e+02    3.56895200e+02
    164     163     165 1       1.11170000e+02    3.56895200e+02
    165     157     159 1       1.03090000e+02    5.20322240e+02
    165     163     161 1       1.03090000e+02    5.20322240e+02
    166     165     167 1       1.07220000e+02    3.00494880e+02
    168     169     170 1       1.19880000e+02    3.75723200e+02
    171     172     173 1       1.20730000e+02    5.29945440e+02
    171     206     205 1       1.20730000e+02    5.29945440e+02
    171     206     207 1       1.19820000e+02    3.74300640e+02
    172     171     206 1       1.18410000e+02    5.33794720e+02
    172     173     174 1       1.19880000e+02    3.75723200e+02
    172     173     175 1       1.20020000e+02    5.32790560e+02
    173     175     176 1       1.20640000e+02    5.08439680e+02
    173     175     205 1       1.20020000e+02    5.32790560e+02
    174     173     175 1       1.19880000e+02    3.75723200e+02
    175     176     177 1       1.14530000e+02    3.58485120e+02
    175     176     178 1       1.16810000e+02    4.91368960e+02
    175     176     200 1       1.24830000e+02    4.77729120e+02
    175     205     178 1       1.20640000e+02    5.08439680e+02
    175     205     206 1       1.20020000e+02    5.32790560e+02
    176     175     205 1       1.20640000e+02    5.08439680e+02
    176     178     179 1       1.14760000e+02    3.49364000e+02
    176     178     180 1       1.22490000e+02    4.75804480e+02
    176     178     205 1       1.16810000e+02    4.91368960e+02
    176     200     198 1       9.60300000e+01    5.40070720e+02
    176     200     201 1       1.12000000e+02    3.56811520e+02
    176     200     202 1       1.03090000e+02    5.20322240e+02
    177     176     178 1       1.14760000e+02    3.49364000e+02
    177     176     200 1       1.13690000e+02    3.54217440e+02
    178     176     200 1       1.22490000e+02    4.75804480e+02
    178     180     181 1       1.12000000e+02    3.56811520e+02
    178     180     182 1       9.60300000e+01    5.40070720e+02
    178     180     202 1       1.03090000e+02    5.20322240e+02
    178     205     206 1       1.20640000e+02    5.08439680e+02
    179     178     180 1       1.13690000e+02    3.54217440e+02
    179     178     205 1       1.14530000e+02    3.58485120e+02
    180     178     205 1       1.24830000e+02    4.77729120e+02
    180     182     183 1       1.13690000e+02    3.54217440e+02
    180     182     184 1       1.24830000e+02    4.77729120e+02
    180     182     198 1       1.22490000e+02    4.75804480e+02
    180     202     200 1       1.03830000e+02    5.17477120e+02
    180     202     203 1       1.11170000e+02    3.56895200e+02
    180     202     204 1       1.11170000e+02    3.56895200e+02
    181     180     182 1       1.12000000e+02    3.56811520e+02
    181     180     202 1       1.11170000e+02    3.56895200e+02
    182     180     202 1       1.03090000e+02    5.20322240e+02
    182     184     185 1       1.20640000e+02    5.08439680e+02
    182     184     193 1       1.20640000e+02    5.08439680e+02
    182     198     185 1       1.16810000e+02    4.91368960e+02
    182     198     199 1       1.14760000e+02    3.49364000e+02
    182     198     200 1       1.22490000e+02    4.75804480e+02
    183     182     184 1       1.14530000e+02    3.58485120e+02
    183     182     198 1       1.14760000e+02    3.49364000e+02
    184     182     198 1       1.16810000e+02    4.91368960e+02
    184     185     186 1       1.20020000e+02    5.32790560e+02
    184     185     198 1       1.20640000e+02    5.08439680e+02
    184     193     192 1       1.20020000e+02    5.32790560e+02
    184     193     194 1       1.20830000e+02    5.08272320e+02
    185     184     193 1       1.20020000e+02    5.32790560e+02
    185     186     187 1       1.20830000e+02    5.08272320e+02
    185     186     191 1       1.20020000e+02    5.32790560e+02
    185     198     199 1       1.14530000e+02    3.58485120e+02
    185     198     200 1       1.24830000e+02    4.77729120e+02
    186     185     198 1       1.20640000e+02    5.08439680e+02
    186     187     188 1       1.10630000e+02    3.64928480e+02
    186     187     189 1       1.10630000e+02    3.64928480e+02
    186     187     190 1       1.10630000e+02    3.64928480e+02
    186     191     192 1       1.20020000e+02    5.32790560e+02
    186     191    2852 1       1.20640000e+02    5.08439680e+02
    187     186     191 1       1.20830000e+02    5.08272320e+02
    188     187     189 1       1.07730000e+02    2.99574400e+02
    188     187     190 1       1.07730000e+02    2.99574400e+02
    189     187     190 1       1.07730000e+02    2.99574400e+02
    191     192     193 1       1.20020000e+02    5.32790560e+02
    191     192    2850 1       1.20640000e+02    5.08439680e+02
    191    2852    2850 1       1.16810000e+02    4.91368960e+02
    191    2852    2853 1       1.14530000e+02    3.58485120e+02
    192     191    2852 1       1.20640000e+02    5.08439680e+02
    192    2850    2851 1       1.14530000e+02    3.58485120e+02
    192    2850    2852 1       1.16810000e+02    4.91368960e+02
    193     192    2850 1       1.20640000e+02    5.08439680e+02
    193     194     195 1       1.10630000e+02    3.64928480e+02
    193     194     196 1       1.10630000e+02    3.64928480e+02
    193     194     197 1       1.10630000e+02    3.64928480e+02
    194     193     192 1       1.20830000e+02    5.08272320e+02
    195     194     196 1       1.07730000e+02    2.99574400e+02
    195     194     197 1       1.07730000e+02    2.99574400e+02
    196     194     197 1       1.07730000e+02    2.99574400e+02
    198     200     201 1       1.12000000e+02    3.56811520e+02
    198     200     202 1       1.03090000e+02    5.20322240e+02
    199     198     200 1       1.13690000e+02    3.54217440e+02
    200     202     203 1       1.11170000e+02    3.56895200e+02
    200     202     204 1       1.11170000e+02    3.56895200e+02
    201     200     202 1       1.11170000e+02    3.56895200e+02
    203     202     204 1       1.07220000e+02    3.00494880e+02
    205     206     207 1       1.19880000e+02    3.75723200e+02
    208     212     213 1       1.10280000e+02    5.05761920e+02
    208     212     217 1       1.13070000e+02    5.03000480e+02
    208     212     241 1       1.13070000e+02    5.03000480e+02
    209     208     210 1       1.07730000e+02    2.99574400e+02
    209     208     211 1       1.07730000e+02    2.99574400e+02
    209     208     212 1       1.10530000e+02    3.60326080e+02
    210     208     211 1       1.07730000e+02    2.99574400e+02
    210     208     212 1       1.10530000e+02    3.60326080e+02
    211     208     212 1       1.10530000e+02    3.60326080e+02
    212     213     214 1       1.10530000e+02    3.60326080e+02
    212     213     215 1       1.10530000e+02    3.60326080e+02
    212     213     216 1       1.10530000e+02    3.60326080e+02
    212     217     218 1       1.10210000e+02    5.31033280e+02
    212     217     238 1       1.21870000e+02    5.06012960e+02
    212     241     240 1       1.10210000e+02    5.31033280e+02
    212     241     242 1       1.21870000e+02    5.06012960e+02
    213     212     217 1       1.13070000e+02    5.03000480e+02
    213     212     241 1       1.13070000e+02    5.03000480e+02
    214     213     215 1       1.07730000e+02    2.99574400e+02
    214     213     216 1       1.07730000e+02    2.99574400e+02
    215     213     216 1       1.07730000e+02    2.99574400e+02
    217     212     241 1       1.12520000e+02    5.08021280e+02
    217     218     219 1       1.18410000e+02    5.33794720e+02
    217     218     240 1       1.21100000e+02    5.12958400e+02
    217     238     237 1       1.20020000e+02    5.32790560e+02
    217     238     239 1       1.19880000e+02    3.75723200e+02
    218     217     238 1       1.20730000e+02    5.29945440e+02
    218     219     220 1       1.19820000e+02    3.74300640e+02
    218     219     221 1       1.20730000e+02    5.29945440e+02
    218     240     241 1       1.21100000e+02    5.12958400e+02
    218     240     275 1       1.21100000e+02    5.12958400e+02
    219     218     240 1       1.21100000e+02    5.12958400e+02
    219     221     222 1       1.20640000e+02    5.08439680e+02
    219     221     237 1       1.20020000e+02    5.32790560e+02
    220     219     221 1       1.19880000e+02    3.75723200e+02
    221     222     223 1       1.14530000e+02    3.58485120e+02
    221     222     224 1       1.16810000e+02    4.91368960e+02
    221     222     232 1       1.24830000e+02    4.77729120e+02
    221     237     224 1       1.20640000e+02    5.08439680e+02
    221     237     238 1       1.20020000e+02    5.32790560e+02
    222     221     237 1       1.20640000e+02    5.08439680e+02
    222     224     225 1       1.14760000e+02    3.49364000e+02
    222     224     226 1       1.22490000e+02    4.75804480e+02
    222     224     237 1       1.16810000e+02    4.91368960e+02
    222     232     230 1       9.60300000e+01    5.40070720e+02
    222     232     233 1       1.12000000e+02    3.56811520e+02
    222     232     234 1       1.03090000e+02    5.20322240e+02
    223     222     224 1       1.14760000e+02    3.49364000e+02
    223     222     232 1       1.13690000e+02    3.54217440e+02
    224     222     232 1       1.22490000e+02    4.75804480e+02
    224     226     227 1       1.12000000e+02    3.56811520e+02
    224     226     228 1       9.60300000e+01    5.40070720e+02
    224     226     234 1       1.03090000e+02    5.20322240e+02
    224     237     238 1       1.20640000e+02    5.08439680e+02
    225     224     226 1       1.13690000e+02    3.54217440e+02
    225     224     237 1       1.14530000e+02    3.58485120e+02
    226     224     237 1       1.24830000e+02    4.77729120e+02
    226     228     229 1       1.13690000e+02    3.54217440e+02
    226     228     230 1       1.22490000e+02    4.75804480e+02
    226     228     605 1       1.24830000e+02    4.77729120e+02
    226     234     232 1       1.03830000e+02    5.17477120e+02
    226     234     235 1       1.11170000e+02    3.56895200e+02
    226     234     236 1       1.11170000e+02    3.56895200e+02
    227     226     234 1       1.11170000e+02    3.56895200e+02
    228     226     227 1       1.12000000e+02    3.56811520e+02
    228     230     231 1       1.14760000e+02    3.49364000e+02
    230     228     229 1       1.14760000e+02    3.49364000e+02
    230     232     233 1       1.12000000e+02    3.56811520e+02
    232     230     228 1       1.22490000e+02    4.75804480e+02
    232     230     231 1       1.13690000e+02    3.54217440e+02
    232     230     606 1       1.24830000e+02    4.77729120e+02
    232     234     235 1       1.11170000e+02    3.56895200e+02
    232     234     236 1       1.11170000e+02    3.56895200e+02
    233     232     234 1       1.11170000e+02    3.56895200e+02
    234     226     228 1       1.03090000e+02    5.20322240e+02
    234     232     230 1       1.03090000e+02    5.20322240e+02
    235     234     236 1       1.07220000e+02    3.00494880e+02
    237     238     239 1       1.19880000e+02    3.75723200e+02
    240     241     242 1       1.20730000e+02    5.29945440e+02
    240     275     274 1       1.20730000e+02    5.29945440e+02
    240     275     276 1       1.19820000e+02    3.74300640e+02
    241     240     275 1       1.18410000e+02    5.33794720e+02
    241     242     243 1       1.19880000e+02    3.75723200e+02
    241     242     244 1       1.20020000e+02    5.32790560e+02
    242     244     245 1       1.20640000e+02    5.08439680e+02
    242     244     274 1       1.20020000e+02    5.32790560e+02
    243     242     244 1       1.19880000e+02    3.75723200e+02
    244     245     246 1       1.14530000e+02    3.58485120e+02
    244     245     247 1       1.16810000e+02    4.91368960e+02
    244     245     269 1       1.24830000e+02    4.77729120e+02
    244     274     247 1       1.20640000e+02    5.08439680e+02
    244     274     275 1       1.20020000e+02    5.32790560e+02
    245     244     274 1       1.20640000e+02    5.08439680e+02
    245     247     248 1       1.14760000e+02    3.49364000e+02
    245     247     249 1       1.22490000e+02    4.75804480e+02
    245     247     274 1       1.16810000e+02    4.91368960e+02
    245     269     267 1       9.60300000e+01    5.40070720e+02
    245     269     270 1       1.12000000e+02    3.56811520e+02
    245     269     271 1       1.03090000e+02    5.20322240e+02
    246     245     247 1       1.14760000e+02    3.49364000e+02
    246     245     269 1       1.13690000e+02    3.54217440e+02
    247     245     269 1       1.22490000e+02    4.75804480e+02
    247     249     250 1       1.12000000e+02    3.56811520e+02
    247     249     251 1       9.60300000e+01    5.40070720e+02
    247     249     271 1       1.03090000e+02    5.20322240e+02
    247     274     275 1       1.20640000e+02    5.08439680e+02
    248     247     249 1       1.13690000e+02    3.54217440e+02
    248     247     274 1       1.14530000e+02    3.58485120e+02
    249     247     274 1       1.24830000e+02    4.77729120e+02
    249     251     252 1       1.13690000e+02    3.54217440e+02
    249     251     253 1       1.24830000e+02    4.77729120e+02
    249     251     267 1       1.22490000e+02    4.75804480e+02
    249     271     269 1       1.03830000e+02    5.17477120e+02
    249     271     272 1       1.11170000e+02    3.56895200e+02
    249     271     273 1       1.11170000e+02    3.56895200e+02
    250     249     251 1       1.12000000e+02    3.56811520e+02
    250     249     271 1       1.11170000e+02    3.56895200e+02
    251     249     271 1       1.03090000e+02    5.20322240e+02
    251     253     254 1       1.20640000e+02    5.08439680e+02
    251     253     262 1       1.20640000e+02    5.08439680e+02
    251     267     254 1       1.16810000e+02    4.91368960e+02
    251     267     268 1       1.14760000e+02    3.49364000e+02
    251     267     269 1       1.22490000e+02    4.75804480e+02
    252     251     253 1       1.14530000e+02    3.58485120e+02
    252     251     267 1       1.14760000e+02    3.49364000e+02
    253     251     267 1       1.16810000e+02    4.91368960e+02
    253     254     255 1       1.20020000e+02    5.32790560e+02
    253     254     267 1       1.20640000e+02    5.08439680e+02
    253     262     261 1       1.20020000e+02    5.32790560e+02
    253     262     263 1       1.20830000e+02    5.08272320e+02
    254     253     262 1       1.20020000e+02    5.32790560e+02
    254     255     256 1       1.20830000e+02    5.08272320e+02
    254     255     260 1       1.20020000e+02    5.32790560e+02
    254     267     268 1       1.14530000e+02    3.58485120e+02
    254     267     269 1       1.24830000e+02    4.77729120e+02
    255     254     267 1       1.20640000e+02    5.08439680e+02
    255     256     257 1       1.10630000e+02    3.64928480e+02
    255     256     258 1       1.10630000e+02    3.64928480e+02
    255     256     259 1       1.10630000e+02    3.64928480e+02
    255     260     261 1       1.20020000e+02    5.32790560e+02
    255     260    6647 1       1.20640000e+02    5.08439680e+02
    256     255     260 1       1.20830000e+02    5.08272320e+02
    257     256     258 1       1.07730000e+02    2.99574400e+02
    257     256     259 1       1.07730000e+02    2.99574400e+02
    258     256     259 1       1.07730000e+02    2.99574400e+02
    260     261     262 1       1.20020000e+02    5.32790560e+02
    260     261    6645 1       1.20640000e+02    5.08439680e+02
    260    6647    6645 1       1.16810000e+02    4.91368960e+02
    260    6647    6648 1       1.14530000e+02    3.58485120e+02
    261     260    6647 1       1.20640000e+02    5.08439680e+02
    261    6645    6646 1       1.14530000e+02    3.58485120e+02
    261    6645    6647 1       1.16810000e+02    4.91368960e+02
    262     261    6645 1       1.20640000e+02    5.08439680e+02
    262     263     264 1       1.10630000e+02    3.64928480e+02
    262     263     265 1       1.10630000e+02    3.64928480e+02
    262     263     266 1       1.10630000e+02    3.64928480e+02
    263     262     261 1       1.20830000e+02    5.08272320e+02
    264     263     265 1       1.07730000e+02    2.99574400e+02
    264     263     266 1       1.07730000e+02    2.99574400e+02
    265     263     266 1       1.07730000e+02    2.99574400e+02
    267     269     270 1       1.12000000e+02    3.56811520e+02
    267     269     271 1       1.03090000e+02    5.20322240e+02
    268     267     269 1       1.13690000e+02    3.54217440e+02
    269     271     272 1       1.11170000e+02    3.56895200e+02
    269     271     273 1       1.11170000e+02    3.56895200e+02
    270     269     271 1       1.11170000e+02    3.56895200e+02
    272     271     273 1       1.07220000e+02    3.00494880e+02
    274     275     276 1       1.19880000e+02    3.75723200e+02
    277     281     282 1       1.10280000e+02    5.05761920e+02
    277     281     286 1       1.13070000e+02    5.03000480e+02
    277     281     310 1       1.13070000e+02    5.03000480e+02
    278     277     279 1       1.07730000e+02    2.99574400e+02
    278     277     280 1       1.07730000e+02    2.99574400e+02
    278     277     281 1       1.10530000e+02    3.60326080e+02
    279     277     280 1       1.07730000e+02    2.99574400e+02
    279     277     281 1       1.10530000e+02    3.60326080e+02
    280     277     281 1       1.10530000e+02    3.60326080e+02
    281     282     283 1       1.10530000e+02    3.60326080e+02
    281     282     284 1       1.10530000e+02    3.60326080e+02
    281     282     285 1       1.10530000e+02    3.60326080e+02
    281     286     287 1       1.10210000e+02    5.31033280e+02
    281     286     307 1       1.21870000e+02    5.06012960e+02
    281     310     309 1       1.10210000e+02    5.31033280e+02
    281     310     311 1       1.21870000e+02    5.06012960e+02
    282     281     286 1       1.13070000e+02    5.03000480e+02
    282     281     310 1       1.13070000e+02    5.03000480e+02
    283     282     284 1       1.07730000e+02    2.99574400e+02
    283     282     285 1       1.07730000e+02    2.99574400e+02
    284     282     285 1       1.07730000e+02    2.99574400e+02
    286     281     310 1       1.12520000e+02    5.08021280e+02
    286     287     288 1       1.18410000e+02    5.33794720e+02
    286     287     309 1       1.21100000e+02    5.12958400e+02
    286     307     306 1       1.20020000e+02    5.32790560e+02
    286     307     308 1       1.19880000e+02    3.75723200e+02
    287     286     307 1       1.20730000e+02    5.29945440e+02
    287     288     289 1       1.19820000e+02    3.74300640e+02
    287     288     290 1       1.20730000e+02    5.29945440e+02
    287     309     310 1       1.21100000e+02    5.12958400e+02
    287     309     344 1       1.21100000e+02    5.12958400e+02
    288     287     309 1       1.21100000e+02    5.12958400e+02
    288     290     291 1       1.20640000e+02    5.08439680e+02
    288     290     306 1       1.20020000e+02    5.32790560e+02
    289     288     290 1       1.19880000e+02    3.75723200e+02
    290     291     292 1       1.14530000e+02    3.58485120e+02
    290     291     293 1       1.16810000e+02    4.91368960e+02
    290     291     301 1       1.24830000e+02    4.77729120e+02
    290     306     293 1       1.20640000e+02    5.08439680e+02
    290     306     307 1       1.20020000e+02    5.32790560e+02
    291     290     306 1       1.20640000e+02    5.08439680e+02
    291     293     294 1       1.14760000e+02    3.49364000e+02
    291     293     295 1       1.22490000e+02    4.75804480e+02
    291     293     306 1       1.16810000e+02    4.91368960e+02
    291     301     299 1       9.60300000e+01    5.40070720e+02
    291     301     302 1       1.12000000e+02    3.56811520e+02
    291     301     303 1       1.03090000e+02    5.20322240e+02
    292     291     293 1       1.14760000e+02    3.49364000e+02
    292     291     301 1       1.13690000e+02    3.54217440e+02
    293     291     301 1       1.22490000e+02    4.75804480e+02
    293     295     296 1       1.12000000e+02    3.56811520e+02
    293     295     297 1       9.60300000e+01    5.40070720e+02
    293     295     303 1       1.03090000e+02    5.20322240e+02
    293     306     307 1       1.20640000e+02    5.08439680e+02
    294     293     295 1       1.13690000e+02    3.54217440e+02
    294     293     306 1       1.14530000e+02    3.58485120e+02
    295     293     306 1       1.24830000e+02    4.77729120e+02
    295     297     298 1       1.13690000e+02    3.54217440e+02
    295     297     299 1       1.22490000e+02    4.75804480e+02
    295     297    5643 1       1.24830000e+02    4.77729120e+02
    295     303     301 1       1.03830000e+02    5.17477120e+02
    295     303     304 1       1.11170000e+02    3.56895200e+02
    295     303     305 1       1.11170000e+02    3.56895200e+02
    296     295     303 1       1.11170000e+02    3.56895200e+02
    297     295     296 1       1.12000000e+02    3.56811520e+02
    297     299     300 1       1.14760000e+02    3.49364000e+02
    299     297     298 1       1.14760000e+02    3.49364000e+02
    299     301     302 1       1.12000000e+02    3.56811520e+02
    301     299     297 1       1.22490000e+02    4.75804480e+02
    301     299     300 1       1.13690000e+02    3.54217440e+02
    301     299    5642 1       1.24830000e+02    4.77729120e+02
    301     303     304 1       1.11170000e+02    3.56895200e+02
    301     303     305 1       1.11170000e+02    3.56895200e+02
    302     301     303 1       1.11170000e+02    3.56895200e+02
    303     295     297 1       1.03090000e+02    5.20322240e+02
    303     301     299 1       1.03090000e+02    5.20322240e+02
    304     303     305 1       1.07220000e+02    3.00494880e+02
    306     307     308 1       1.19880000e+02    3.75723200e+02
    309     310     311 1       1.20730000e+02    5.29945440e+02
    309     344     343 1       1.20730000e+02    5.29945440e+02
    309     344     345 1       1.19820000e+02    3.74300640e+02
    310     309     344 1       1.18410000e+02    5.33794720e+02
    310     311     312 1       1.19880000e+02    3.75723200e+02
    310     311     313 1       1.20020000e+02    5.32790560e+02
    311     313     314 1       1.20640000e+02    5.08439680e+02
    311     313     343 1       1.20020000e+02    5.32790560e+02
    312     311     313 1       1.19880000e+02    3.75723200e+02
    313     314     315 1       1.14530000e+02    3.58485120e+02
    313     314     316 1       1.16810000e+02    4.91368960e+02
    313     314     338 1       1.24830000e+02    4.77729120e+02
    313     343     316 1       1.20640000e+02    5.08439680e+02
    313     343     344 1       1.20020000e+02    5.32790560e+02
    314     313     343 1       1.20640000e+02    5.08439680e+02
    314     316     317 1       1.14760000e+02    3.49364000e+02
    314     316     318 1       1.22490000e+02    4.75804480e+02
    314     316     343 1       1.16810000e+02    4.91368960e+02
    314     338     336 1       9.60300000e+01    5.40070720e+02
    314     338     339 1       1.12000000e+02    3.56811520e+02
    314     338     340 1       1.03090000e+02    5.20322240e+02
    315     314     316 1       1.14760000e+02    3.49364000e+02
    315     314     338 1       1.13690000e+02    3.54217440e+02
    316     314     338 1       1.22490000e+02    4.75804480e+02
    316     318     319 1       1.12000000e+02    3.56811520e+02
    316     318     320 1       9.60300000e+01    5.40070720e+02
    316     318     340 1       1.03090000e+02    5.20322240e+02
    316     343     344 1       1.20640000e+02    5.08439680e+02
    317     316     318 1       1.13690000e+02    3.54217440e+02
    317     316     343 1       1.14530000e+02    3.58485120e+02
    318     316     343 1       1.24830000e+02    4.77729120e+02
    318     320     321 1       1.13690000e+02    3.54217440e+02
    318     320     322 1       1.24830000e+02    4.77729120e+02
    318     320     336 1       1.22490000e+02    4.75804480e+02
    318     340     338 1       1.03830000e+02    5.17477120e+02
    318     340     341 1       1.11170000e+02    3.56895200e+02
    318     340     342 1       1.11170000e+02    3.56895200e+02
    319     318     320 1       1.12000000e+02    3.56811520e+02
    319     318     340 1       1.11170000e+02    3.56895200e+02
    320     318     340 1       1.03090000e+02    5.20322240e+02
    320     322     323 1       1.20640000e+02    5.08439680e+02
    320     322     331 1       1.20640000e+02    5.08439680e+02
    320     336     323 1       1.16810000e+02    4.91368960e+02
    320     336     337 1       1.14760000e+02    3.49364000e+02
    320     336     338 1       1.22490000e+02    4.75804480e+02
    321     320     322 1       1.14530000e+02    3.58485120e+02
    321     320     336 1       1.14760000e+02    3.49364000e+02
    322     320     336 1       1.16810000e+02    4.91368960e+02
    322     323     324 1       1.20020000e+02    5.32790560e+02
    322     323     336 1       1.20640000e+02    5.08439680e+02
    322     331     330 1       1.20020000e+02    5.32790560e+02
    322     331     332 1       1.20830000e+02    5.08272320e+02
    323     322     331 1       1.20020000e+02    5.32790560e+02
    323     324     325 1       1.20830000e+02    5.08272320e+02
    323     324     329 1       1.20020000e+02    5.32790560e+02
    323     336     337 1       1.14530000e+02    3.58485120e+02
    323     336     338 1       1.24830000e+02    4.77729120e+02
    324     323     336 1       1.20640000e+02    5.08439680e+02
    324     325     326 1       1.10630000e+02    3.64928480e+02
    324     325     327 1       1.10630000e+02    3.64928480e+02
    324     325     328 1       1.10630000e+02    3.64928480e+02
    324     329     330 1       1.20020000e+02    5.32790560e+02
    324     329    4370 1       1.20640000e+02    5.08439680e+02
    325     324     329 1       1.20830000e+02    5.08272320e+02
    326     325     327 1       1.07730000e+02    2.99574400e+02
    326     325     328 1       1.07730000e+02    2.99574400e+02
    327     325     328 1       1.07730000e+02    2.99574400e+02
    329     330     331 1       1.20020000e+02    5.32790560e+02
    329     330    4368 1       1.20640000e+02    5.08439680e+02
    329    4370    4368 1       1.16810000e+02    4.91368960e+02
    329    4370    4371 1       1.14530000e+02    3.58485120e+02
    330     329    4370 1       1.20640000e+02    5.08439680e+02
    330    4368    4369 1       1.14530000e+02    3.58485120e+02
    330    4368    4370 1       1.16810000e+02    4.91368960e+02
    331     330    4368 1       1.20640000e+02    5.08439680e+02
    331     332     333 1       1.10630000e+02    3.64928480e+02
    331     332     334 1       1.10630000e+02    3.64928480e+02
    331     332     335 1       1.10630000e+02    3.64928480e+02
    332     331     330 1       1.20830000e+02    5.08272320e+02
    333     332     334 1       1.07730000e+02    2.99574400e+02
    333     332     335 1       1.07730000e+02    2.99574400e+02
    334     332     335 1       1.07730000e+02    2.99574400e+02
    336     338     339 1       1.12000000e+02    3.56811520e+02
    336     338     340 1       1.03090000e+02    5.20322240e+02
    337     336     338 1       1.13690000e+02    3.54217440e+02
    338     340     341 1       1.11170000e+02    3.56895200e+02
    338     340     342 1       1.11170000e+02    3.56895200e+02
    339     338     340 1       1.11170000e+02    3.56895200e+02
    341     340     342 1       1.07220000e+02    3.00494880e+02
    343     344     345 1       1.19880000e+02    3.75723200e+02
    346     350     351 1       1.10280000e+02    5.05761920e+02
    346     350     355 1       1.13070000e+02    5.03000480e+02
    346     350     379 1       1.13070000e+02    5.03000480e+02
    347     346     348 1       1.07730000e+02    2.99574400e+02
    347     346     349 1       1.07730000e+02    2.99574400e+02
    347     346     350 1       1.10530000e+02    3.60326080e+02
    348     346     349 1       1.07730000e+02    2.99574400e+02
    348     346     350 1       1.10530000e+02    3.60326080e+02
    349     346     350 1       1.10530000e+02    3.60326080e+02
    350     351     352 1       1.10530000e+02    3.60326080e+02
    350     351     353 1       1.10530000e+02    3.60326080e+02
    350     351     354 1       1.10530000e+02    3.60326080e+02
    350     355     356 1       1.10210000e+02    5.31033280e+02
    350     355     376 1       1.21870000e+02    5.06012960e+02
    350     379     378 1       1.10210000e+02    5.31033280e+02
    350     379     380 1       1.21870000e+02    5.06012960e+02
    351     350     355 1       1.13070000e+02    5.03000480e+02
    351     350     379 1       1.13070000e+02    5.03000480e+02
    352     351     353 1       1.07730000e+02    2.99574400e+02
    352     351     354 1       1.07730000e+02    2.99574400e+02
    353     351     354 1       1.07730000e+02    2.99574400e+02
    355     350     379 1       1.12520000e+02    5.08021280e+02
    355     356     357 1       1.18410000e+02    5.33794720e+02
    355     356     378 1       1.21100000e+02    5.12958400e+02
    355     376     375 1       1.20020000e+02    5.32790560e+02
    355     376     377 1       1.19880000e+02    3.75723200e+02
    356     355     376 1       1.20730000e+02    5.29945440e+02
    356     357     358 1       1.19820000e+02    3.74300640e+02
    356     357     359 1       1.20730000e+02    5.29945440e+02
    356     378     379 1       1.21100000e+02    5.12958400e+02
    356     378     413 1       1.21100000e+02    5.12958400e+02
    357     356     378 1       1.21100000e+02    5.12958400e+02
    357     359     360 1       1.20640000e+02    5.08439680e+02
    357     359     375 1       1.20020000e+02    5.32790560e+02
    358     357     359 1       1.19880000e+02    3.75723200e+02
    359     360     361 1       1.14530000e+02    3.58485120e+02
    359     360     362 1       1.16810000e+02    4.91368960e+02
    359     360     370 1       1.24830000e+02    4.77729120e+02
    359     375     362 1       1.20640000e+02    5.08439680e+02
    359     375     376 1       1.20020000e+02    5.32790560e+02
    360     359     375 1       1.20640000e+02    5.08439680e+02
    360     362     363 1       1.14760000e+02    3.49364000e+02
    360     362     364 1       1.22490000e+02    4.75804480e+02
    360     362     375 1       1.16810000e+02    4.91368960e+02
    360     370     368 1       9.60300000e+01    5.40070720e+02
    360     370     371 1       1.12000000e+02    3.56811520e+02
    360     370     372 1       1.03090000e+02    5.20322240e+02
    361     360     362 1       1.14760000e+02    3.49364000e+02
    361     360     370 1       1.13690000e+02    3.54217440e+02
    362     360     370 1       1.22490000e+02    4.75804480e+02
    362     364     365 1       1.12000000e+02    3.56811520e+02
    362     364     366 1       9.60300000e+01    5.40070720e+02
    362     364     372 1       1.03090000e+02    5.20322240e+02
    362     375     376 1       1.20640000e+02    5.08439680e+02
    363     362     364 1       1.13690000e+02    3.54217440e+02
    363     362     375 1       1.14530000e+02    3.58485120e+02
    364     362     375 1       1.24830000e+02    4.77729120e+02
    364     366     367 1       1.13690000e+02    3.54217440e+02
    364     366     368 1       1.22490000e+02    4.75804480e+02
    364     366    2676 1       1.24830000e+02    4.77729120e+02
    364     372     370 1       1.03830000e+02    5.17477120e+02
    364     372     373 1       1.11170000e+02    3.56895200e+02
    364     372     374 1       1.11170000e+02    3.56895200e+02
    365     364     372 1       1.11170000e+02    3.56895200e+02
    366     364     365 1       1.12000000e+02    3.56811520e+02
    366     368     369 1       1.14760000e+02    3.49364000e+02
    368     366     367 1       1.14760000e+02    3.49364000e+02
    368     370     371 1       1.12000000e+02    3.56811520e+02
    370     368     366 1       1.22490000e+02    4.75804480e+02
    370     368     369 1       1.13690000e+02    3.54217440e+02
    370     368    2675 1       1.24830000e+02    4.77729120e+02
    370     372     373 1       1.11170000e+02    3.56895200e+02
    370     372     374 1       1.11170000e+02    3.56895200e+02
    371     370     372 1       1.11170000e+02    3.56895200e+02
    372     364     366 1       1.03090000e+02    5.20322240e+02
    372     370     368 1       1.03090000e+02    5.20322240e+02
    373     372     374 1       1.07220000e+02    3.00494880e+02
    375     376     377 1       1.19880000e+02    3.75723200e+02
    378     379     380 1       1.20730000e+02    5.29945440e+02
    378     413     412 1       1.20730000e+02    5.29945440e+02
    378     413     414 1       1.19820000e+02    3.74300640e+02
    379     378     413 1       1.18410000e+02    5.33794720e+02
    379     380     381 1       1.19880000e+02    3.75723200e+02
    379     380     382 1       1.20020000e+02    5.32790560e+02
    380     382     383 1       1.20640000e+02    5.08439680e+02
    380     382     412 1       1.20020000e+02    5.32790560e+02
    381     380     382 1       1.19880000e+02    3.75723200e+02
    382     383     384 1       1.14530000e+02    3.58485120e+02
    382     383     385 1       1.16810000e+02    4.91368960e+02
    382     383     407 1       1.24830000e+02    4.77729120e+02
    382     412     385 1       1.20640000e+02    5.08439680e+02
    382     412     413 1       1.20020000e+02    5.32790560e+02
    383     382     412 1       1.20640000e+02    5.08439680e+02
    383     385     386 1       1.14760000e+02    3.49364000e+02
    383     385     387 1       1.22490000e+02    4.75804480e+02
    383     385     412 1       1.16810000e+02    4.91368960e+02
    383     407     405 1       9.60300000e+01    5.40070720e+02
    383     407     408 1       1.12000000e+02    3.56811520e+02
    383     407     409 1       1.03090000e+02    5.20322240e+02
    384     383     385 1       1.14760000e+02    3.49364000e+02
    384     383     407 1       1.13690000e+02    3.54217440e+02
    385     383     407 1       1.22490000e+02    4.75804480e+02
    385     387     388 1       1.12000000e+02    3.56811520e+02
    385     387     389 1       9.60300000e+01    5.40070720e+02
    385     387     409 1       1.03090000e+02    5.20322240e+02
    385     412     413 1       1.20640000e+02    5.08439680e+02
    386     385     387 1       1.13690000e+02    3.54217440e+02
    386     385     412 1       1.14530000e+02    3.58485120e+02
    387     385     412 1       1.24830000e+02    4.77729120e+02
    387     389     390 1       1.13690000e+02    3.54217440e+02
    387     389     391 1       1.24830000e+02    4.77729120e+02
    387     389     405 1       1.22490000e+02    4.75804480e+02
    387     409     407 1       1.03830000e+02    5.17477120e+02
    387     409     410 1       1.11170000e+02    3.56895200e+02
    387     409     411 1       1.11170000e+02    3.56895200e+02
    388     387     389 1       1.12000000e+02    3.56811520e+02
    388     387     409 1       1.11170000e+02    3.56895200e+02
    389     387     409 1       1.03090000e+02    5.20322240e+02
    389     391     392 1       1.20640000e+02    5.08439680e+02
    389     391     400 1       1.20640000e+02    5.08439680e+02
    389     405     392 1       1.16810000e+02    4.91368960e+02
    389     405     406 1       1.14760000e+02    3.49364000e+02
    389     405     407 1       1.22490000e+02    4.75804480e+02
    390     389     391 1       1.14530000e+02    3.58485120e+02
    390     389     405 1       1.14760000e+02    3.49364000e+02
    391     389     405 1       1.16810000e+02    4.91368960e+02
    391     392     393 1       1.20020000e+02    5.32790560e+02
    391     392     405 1       1.20640000e+02    5.08439680e+02
    391     400     399 1       1.20020000e+02    5.32790560e+02
    391     400     401 1       1.20830000e+02    5.08272320e+02
    392     391     400 1       1.20020000e+02    5.32790560e+02
    392     393     394 1       1.20830000e+02    5.08272320e+02
    392     393     398 1       1.20020000e+02    5.32790560e+02
    392     405     406 1       1.14530000e+02    3.58485120e+02
    392     405     407 1       1.24830000e+02    4.77729120e+02
    393     392     405 1       1.20640000e+02    5.08439680e+02
    393     394     395 1       1.10630000e+02    3.64928480e+02
    393     394     396 1       1.10630000e+02    3.64928480e+02
    393     394     397 1       1.10630000e+02    3.64928480e+02
    393     398     399 1       1.20020000e+02    5.32790560e+02
    394     393     398 1       1.20830000e+02    5.08272320e+02
    395     394     396 1       1.07730000e+02    2.99574400e+02
    395     394     397 1       1.07730000e+02    2.99574400e+02
    396     394     397 1       1.07730000e+02    2.99574400e+02
    398     399     400 1       1.20020000e+02    5.32790560e+02
    399     400     401 1       1.20830000e+02    5.08272320e+02
    400     401     402 1       1.10630000e+02    3.64928480e+02
    400     401     403 1       1.10630000e+02    3.64928480e+02
    400     401     404 1       1.10630000e+02    3.64928480e+02
    402     401     403 1       1.07730000e+02    2.99574400e+02
    402     401     404 1       1.07730000e+02    2.99574400e+02
    403     401     404 1       1.07730000e+02    2.99574400e+02
    405     407     408 1       1.12000000e+02    3.56811520e+02
    405     407     409 1       1.03090000e+02    5.20322240e+02
    406     405     407 1       1.13690000e+02    3.54217440e+02
    407     409     410 1       1.11170000e+02    3.56895200e+02
    407     409     411 1       1.11170000e+02    3.56895200e+02
    408     407     409 1       1.11170000e+02    3.56895200e+02
    410     409     411 1       1.07220000e+02    3.00494880e+02
    412     413     414 1       1.19880000e+02    3.75723200e+02
    415     419     420 1       1.10280000e+02    5.05761920e+02
    415     419     424 1       1.13070000e+02    5.03000480e+02
    415     419     448 1       1.13070000e+02    5.03000480e+02
    416     415     417 1       1.07730000e+02    2.99574400e+02
    416     415     418 1       1.07730000e+02    2.99574400e+02
    416     415     419 1       1.10530000e+02    3.60326080e+02
    417     415     418 1       1.07730000e+02    2.99574400e+02
    417     415     419 1       1.10530000e+02    3.60326080e+02
    418     415     419 1       1.10530000e+02    3.60326080e+02
    419     420     421 1       1.10530000e+02    3.60326080e+02
    419     420     422 1       1.10530000e+02    3.60326080e+02
    419     420     423 1       1.10530000e+02    3.60326080e+02
    419     424     425 1       1.10210000e+02    5.31033280e+02
    419     424     445 1       1.21870000e+02    5.06012960e+02
    419     448     447 1       1.10210000e+02    5.31033280e+02
    419     448     449 1       1.21870000e+02    5.06012960e+02
    420     419     424 1       1.13070000e+02    5.03000480e+02
    420     419     448 1       1.13070000e+02    5.03000480e+02
    421     420     422 1       1.07730000e+02    2.99574400e+02
    421     420     423 1       1.07730000e+02    2.99574400e+02
    422     420     423 1       1.07730000e+02    2.99574400e+02
    424     419     448 1       1.12520000e+02    5.08021280e+02
    424     425     426 1       1.18410000e+02    5.33794720e+02
    424     425     447 1       1.21100000e+02    5.12958400e+02
    424     445     444 1       1.20020000e+02    5.32790560e+02
    424     445     446 1       1.19880000e+02    3.75723200e+02
    425     424     445 1       1.20730000e+02    5.29945440e+02
    425     426     427 1       1.19820000e+02    3.74300640e+02
    425     426     428 1       1.20730000e+02    5.29945440e+02
    425     447     448 1       1.21100000e+02    5.12958400e+02
    425     447     482 1       1.21100000e+02    5.12958400e+02
    426     425     447 1       1.21100000e+02    5.12958400e+02
    426     428     429 1       1.20640000e+02    5.08439680e+02
    426     428     444 1       1.20020000e+02    5.32790560e+02
    427     426     428 1       1.19880000e+02    3.75723200e+02
    428     429     430 1       1.14530000e+02    3.58485120e+02
    428     429     431 1       1.16810000e+02    4.91368960e+02
    428     429     439 1       1.24830000e+02    4.77729120e+02
    428     444     431 1       1.20640000e+02    5.08439680e+02
    428     444     445 1       1.20020000e+02    5.32790560e+02
    429     428     444 1       1.20640000e+02    5.08439680e+02
    429     431     432 1       1.14760000e+02    3.49364000e+02
    429     431     433 1       1.22490000e+02    4.75804480e+02
    429     431     444 1       1.16810000e+02    4.91368960e+02
    429     439     437 1       9.60300000e+01    5.40070720e+02
    429     439     440 1       1.12000000e+02    3.56811520e+02
    429     439     441 1       1.03090000e+02    5.20322240e+02
    430     429     431 1       1.14760000e+02    3.49364000e+02
    430     429     439 1       1.13690000e+02    3.54217440e+02
    431     429     439 1       1.22490000e+02    4.75804480e+02
    431     433     434 1       1.12000000e+02    3.56811520e+02
    431     433     435 1       9.60300000e+01    5.40070720e+02
    431     433     441 1       1.03090000e+02    5.20322240e+02
    431     444     445 1       1.20640000e+02    5.08439680e+02
    432     431     433 1       1.13690000e+02    3.54217440e+02
    432     431     444 1       1.14530000e+02    3.58485120e+02
    433     431     444 1       1.24830000e+02    4.77729120e+02
    433     435     436 1       1.13690000e+02    3.54217440e+02
    433     435     437 1       1.22490000e+02    4.75804480e+02
    433     435    2744 1       1.24830000e+02    4.77729120e+02
    433     441     439 1       1.03830000e+02    5.17477120e+02
    433     441     442 1       1.11170000e+02    3.56895200e+02
    433     441     443 1       1.11170000e+02    3.56895200e+02
    434     433     441 1       1.11170000e+02    3.56895200e+02
    435     433     434 1       1.12000000e+02    3.56811520e+02
    435     437     438 1       1.14760000e+02    3.49364000e+02
    437     435     436 1       1.14760000e+02    3.49364000e+02
    437     439     440 1       1.12000000e+02    3.56811520e+02
    439     437     435 1       1.22490000e+02    4.75804480e+02
    439     437     438 1       1.13690000e+02    3.54217440e+02
    439     437    2745 1       1.24830000e+02    4.77729120e+02
    439     441     442 1       1.11170000e+02    3.56895200e+02
    439     441     443 1       1.11170000e+02    3.56895200e+02
    440     439     441 1       1.11170000e+02    3.56895200e+02
    441     433     435 1       1.03090000e+02    5.20322240e+02
    441     439     437 1       1.03090000e+02    5.20322240e+02
    442     441     443 1       1.07220000e+02    3.00494880e+02
    444     445     446 1       1.19880000e+02    3.75723200e+02
    447     448     449 1       1.20730000e+02    5.29945440e+02
    447     482     481 1       1.20730000e+02    5.29945440e+02
    447     482     483 1       1.19820000e+02    3.74300640e+02
    448     447     482 1       1.18410000e+02    5.33794720e+02
    448     449     450 1       1.19880000e+02    3.75723200e+02
    448     449     451 1       1.20020000e+02    5.32790560e+02
    449     451     452 1       1.20640000e+02    5.08439680e+02
    449     451     481 1       1.20020000e+02    5.32790560e+02
    450     449     451 1       1.19880000e+02    3.75723200e+02
    451     452     453 1       1.14530000e+02    3.58485120e+02
    451     452     454 1       1.16810000e+02    4.91368960e+02
    451     452     476 1       1.24830000e+02    4.77729120e+02
    451     481     454 1       1.20640000e+02    5.08439680e+02
    451     481     482 1       1.20020000e+02    5.32790560e+02
    452     451     481 1       1.20640000e+02    5.08439680e+02
    452     454     455 1       1.14760000e+02    3.49364000e+02
    452     454     456 1       1.22490000e+02    4.75804480e+02
    452     454     481 1       1.16810000e+02    4.91368960e+02
    452     476     474 1       9.60300000e+01    5.40070720e+02
    452     476     477 1       1.12000000e+02    3.56811520e+02
    452     476     478 1       1.03090000e+02    5.20322240e+02
    453     452     454 1       1.14760000e+02    3.49364000e+02
    453     452     476 1       1.13690000e+02    3.54217440e+02
    454     452     476 1       1.22490000e+02    4.75804480e+02
    454     456     457 1       1.12000000e+02    3.56811520e+02
    454     456     458 1       9.60300000e+01    5.40070720e+02
    454     456     478 1       1.03090000e+02    5.20322240e+02
    454     481     482 1       1.20640000e+02    5.08439680e+02
    455     454     456 1       1.13690000e+02    3.54217440e+02
    455     454     481 1       1.14530000e+02    3.58485120e+02
    456     454     481 1       1.24830000e+02    4.77729120e+02
    456     458     459 1       1.13690000e+02    3.54217440e+02
    456     458     460 1       1.24830000e+02    4.77729120e+02
    456     458     474 1       1.22490000e+02    4.75804480e+02
    456     478     476 1       1.03830000e+02    5.17477120e+02
    456     478     479 1       1.11170000e+02    3.56895200e+02
    456     478     480 1       1.11170000e+02    3.56895200e+02
    457     456     458 1       1.12000000e+02    3.56811520e+02
    457     456     478 1       1.11170000e+02    3.56895200e+02
    458     456     478 1       1.03090000e+02    5.20322240e+02
    458     460     461 1       1.20640000e+02    5.08439680e+02
    458     460     469 1       1.20640000e+02    5.08439680e+02
    458     474     461 1       1.16810000e+02    4.91368960e+02
    458     474     475 1       1.14760000e+02    3.49364000e+02
    458     474     476 1       1.22490000e+02    4.75804480e+02
    459     458     460 1       1.14530000e+02    3.58485120e+02
    459     458     474 1       1.14760000e+02    3.49364000e+02
    460     458     474 1       1.16810000e+02    4.91368960e+02
    460     461     462 1       1.20020000e+02    5.32790560e+02
    460     461     474 1       1.20640000e+02    5.08439680e+02
    460     469     468 1       1.20020000e+02    5.32790560e+02
    460     469     470 1       1.20830000e+02    5.08272320e+02
    461     460     469 1       1.20020000e+02    5.32790560e+02
    461     462     463 1       1.20830000e+02    5.08272320e+02
    461     462     467 1       1.20020000e+02    5.32790560e+02
    461     474     475 1       1.14530000e+02    3.58485120e+02
    461     474     476 1       1.24830000e+02    4.77729120e+02
    462     461     474 1       1.20640000e+02    5.08439680e+02
    462     463     464 1       1.10630000e+02    3.64928480e+02
    462     463     465 1       1.10630000e+02    3.64928480e+02
    462     463     466 1       1.10630000e+02    3.64928480e+02
    462     467     468 1       1.20020000e+02    5.32790560e+02
    462     467    2576 1       1.20640000e+02    5.08439680e+02
    463     462     467 1       1.20830000e+02    5.08272320e+02
    464     463     465 1       1.07730000e+02    2.99574400e+02
    464     463     466 1       1.07730000e+02    2.99574400e+02
    465     463     466 1       1.07730000e+02    2.99574400e+02
    467     468     469 1       1.20020000e+02    5.32790560e+02
    467     468    2574 1       1.20640000e+02    5.08439680e+02
    467    2576    2574 1       1.16810000e+02    4.91368960e+02
    467    2576    2577 1       1.14530000e+02    3.58485120e+02
    468     467    2576 1       1.20640000e+02    5.08439680e+02
    468    2574    2575 1       1.14530000e+02    3.58485120e+02
    468    2574    2576 1       1.16810000e+02    4.91368960e+02
    469     468    2574 1       1.20640000e+02    5.08439680e+02
    469     470     471 1       1.10630000e+02    3.64928480e+02
    469     470     472 1       1.10630000e+02    3.64928480e+02
    469     470     473 1       1.10630000e+02    3.64928480e+02
    470     469     468 1       1.20830000e+02    5.08272320e+02
    471     470     472 1       1.07730000e+02    2.99574400e+02
    471     470     473 1       1.07730000e+02    2.99574400e+02
    472     470     473 1       1.07730000e+02    2.99574400e+02
    474     476     477 1       1.12000000e+02    3.56811520e+02
    474     476     478 1       1.03090000e+02    5.20322240e+02
    475     474     476 1       1.13690000e+02    3.54217440e+02
    476     478     479 1       1.11170000e+02    3.56895200e+02
    476     478     480 1       1.11170000e+02    3.56895200e+02
    477     476     478 1       1.11170000e+02    3.56895200e+02
    479     478     480 1       1.07220000e+02    3.00494880e+02
    481     482     483 1       1.19880000e+02    3.75723200e+02
    484     488     489 1       1.10280000e+02    5.05761920e+02
    484     488     493 1       1.13070000e+02    5.03000480e+02
    484     488     517 1       1.13070000e+02    5.03000480e+02
    485     484     486 1       1.07730000e+02    2.99574400e+02
    485     484     487 1       1.07730000e+02    2.99574400e+02
    485     484     488 1       1.10530000e+02    3.60326080e+02
    486     484     487 1       1.07730000e+02    2.99574400e+02
    486     484     488 1       1.10530000e+02    3.60326080e+02
    487     484     488 1       1.10530000e+02    3.60326080e+02
    488     489     490 1       1.10530000e+02    3.60326080e+02
    488     489     491 1       1.10530000e+02    3.60326080e+02
    488     489     492 1       1.10530000e+02    3.60326080e+02
    488     493     494 1       1.10210000e+02    5.31033280e+02
    488     493     514 1       1.21870000e+02    5.06012960e+02
    488     517     516 1       1.10210000e+02    5.31033280e+02
    488     517     518 1       1.21870000e+02    5.06012960e+02
    489     488     493 1       1.13070000e+02    5.03000480e+02
    489     488     517 1       1.13070000e+02    5.03000480e+02
    490     489     491 1       1.07730000e+02    2.99574400e+02
    490     489     492 1       1.07730000e+02    2.99574400e+02
    491     489     492 1       1.07730000e+02    2.99574400e+02
    493     488     517 1       1.12520000e+02    5.08021280e+02
    493     494     495 1       1.18410000e+02    5.33794720e+02
    493     494     516 1       1.21100000e+02    5.12958400e+02
    493     514     513 1       1.20020000e+02    5.32790560e+02
    493     514     515 1       1.19880000e+02    3.75723200e+02
    494     493     514 1       1.20730000e+02    5.29945440e+02
    494     495     496 1       1.19820000e+02    3.74300640e+02
    494     495     497 1       1.20730000e+02    5.29945440e+02
    494     516     517 1       1.21100000e+02    5.12958400e+02
    494     516     551 1       1.21100000e+02    5.12958400e+02
    495     494     516 1       1.21100000e+02    5.12958400e+02
    495     497     498 1       1.20640000e+02    5.08439680e+02
    495     497     513 1       1.20020000e+02    5.32790560e+02
    496     495     497 1       1.19880000e+02    3.75723200e+02
    497     498     499 1       1.14530000e+02    3.58485120e+02
    497     498     500 1       1.16810000e+02    4.91368960e+02
    497     498     508 1       1.24830000e+02    4.77729120e+02
    497     513     500 1       1.20640000e+02    5.08439680e+02
    497     513     514 1       1.20020000e+02    5.32790560e+02
    498     497     513 1       1.20640000e+02    5.08439680e+02
    498     500     501 1       1.14760000e+02    3.49364000e+02
    498     500     502 1       1.22490000e+02    4.75804480e+02
    498     500     513 1       1.16810000e+02    4.91368960e+02
    498     508     506 1       9.60300000e+01    5.40070720e+02
    498     508     509 1       1.12000000e+02    3.56811520e+02
    498     508     510 1       1.03090000e+02    5.20322240e+02
    499     498     500 1       1.14760000e+02    3.49364000e+02
    499     498     508 1       1.13690000e+02    3.54217440e+02
    500     498     508 1       1.22490000e+02    4.75804480e+02
    500     502     503 1       1.12000000e+02    3.56811520e+02
    500     502     504 1       9.60300000e+01    5.40070720e+02
    500     502     510 1       1.03090000e+02    5.20322240e+02
    500     513     514 1       1.20640000e+02    5.08439680e+02
    501     500     502 1       1.13690000e+02    3.54217440e+02
    501     500     513 1       1.14530000e+02    3.58485120e+02
    502     500     513 1       1.24830000e+02    4.77729120e+02
    502     504     505 1       1.13690000e+02    3.54217440e+02
    502     504     506 1       1.22490000e+02    4.75804480e+02
    502     504    6678 1       1.24830000e+02    4.77729120e+02
    502     510     508 1       1.03830000e+02    5.17477120e+02
    502     510     511 1       1.11170000e+02    3.56895200e+02
    502     510     512 1       1.11170000e+02    3.56895200e+02
    503     502     510 1       1.11170000e+02    3.56895200e+02
    504     502     503 1       1.12000000e+02    3.56811520e+02
    504     506     507 1       1.14760000e+02    3.49364000e+02
    506     504     505 1       1.14760000e+02    3.49364000e+02
    506     508     509 1       1.12000000e+02    3.56811520e+02
    508     506     504 1       1.22490000e+02    4.75804480e+02
    508     506     507 1       1.13690000e+02    3.54217440e+02
    508     506    6677 1       1.24830000e+02    4.77729120e+02
    508     510     511 1       1.11170000e+02    3.56895200e+02
    508     510     512 1       1.11170000e+02    3.56895200e+02
    509     508     510 1       1.11170000e+02    3.56895200e+02
    510     502     504 1       1.03090000e+02    5.20322240e+02
    510     508     506 1       1.03090000e+02    5.20322240e+02
    511     510     512 1       1.07220000e+02    3.00494880e+02
    513     514     515 1       1.19880000e+02    3.75723200e+02
    516     517     518 1       1.20730000e+02    5.29945440e+02
    516     551     550 1       1.20730000e+02    5.29945440e+02
    516     551     552 1       1.19820000e+02    3.74300640e+02
    517     516     551 1       1.18410000e+02    5.33794720e+02
    517     518     519 1       1.19880000e+02    3.75723200e+02
    517     518     520 1       1.20020000e+02    5.32790560e+02
    518     520     521 1       1.20640000e+02    5.08439680e+02
    518     520     550 1       1.20020000e+02    5.32790560e+02
    519     518     520 1       1.19880000e+02    3.75723200e+02
    520     521     522 1       1.14530000e+02    3.58485120e+02
    520     521     523 1       1.16810000e+02    4.91368960e+02
    520     521     545 1       1.24830000e+02    4.77729120e+02
    520     550     523 1       1.20640000e+02    5.08439680e+02
    520     550     551 1       1.20020000e+02    5.32790560e+02
    521     520     550 1       1.20640000e+02    5.08439680e+02
    521     523     524 1       1.14760000e+02    3.49364000e+02
    521     523     525 1       1.22490000e+02    4.75804480e+02
    521     523     550 1       1.16810000e+02    4.91368960e+02
    521     545     543 1       9.60300000e+01    5.40070720e+02
    521     545     546 1       1.12000000e+02    3.56811520e+02
    521     545     547 1       1.03090000e+02    5.20322240e+02
    522     521     523 1       1.14760000e+02    3.49364000e+02
    522     521     545 1       1.13690000e+02    3.54217440e+02
    523     521     545 1       1.22490000e+02    4.75804480e+02
    523     525     526 1       1.12000000e+02    3.56811520e+02
    523     525     527 1       9.60300000e+01    5.40070720e+02
    523     525     547 1       1.03090000e+02    5.20322240e+02
    523     550     551 1       1.20640000e+02    5.08439680e+02
    524     523     525 1       1.13690000e+02    3.54217440e+02
    524     523     550 1       1.14530000e+02    3.58485120e+02
    525     523     550 1       1.24830000e+02    4.77729120e+02
    525     527     528 1       1.13690000e+02    3.54217440e+02
    525     527     529 1       1.24830000e+02    4.77729120e+02
    525     527     543 1       1.22490000e+02    4.75804480e+02
    525     547     545 1       1.03830000e+02    5.17477120e+02
    525     547     548 1       1.11170000e+02    3.56895200e+02
    525     547     549 1       1.11170000e+02    3.56895200e+02
    526     525     527 1       1.12000000e+02    3.56811520e+02
    526     525     547 1       1.11170000e+02    3.56895200e+02
    527     525     547 1       1.03090000e+02    5.20322240e+02
    527     529     530 1       1.20640000e+02    5.08439680e+02
    527     529     538 1       1.20640000e+02    5.08439680e+02
    527     543     530 1       1.16810000e+02    4.91368960e+02
    527     543     544 1       1.14760000e+02    3.49364000e+02
    527     543     545 1       1.22490000e+02    4.75804480e+02
    528     527     529 1       1.14530000e+02    3.58485120e+02
    528     527     543 1       1.14760000e+02    3.49364000e+02
    529     527     543 1       1.16810000e+02    4.91368960e+02
    529     530     531 1       1.20020000e+02    5.32790560e+02
    529     530     543 1       1.20640000e+02    5.08439680e+02
    529     538     537 1       1.20020000e+02    5.32790560e+02
    529     538     539 1       1.20830000e+02    5.08272320e+02
    530     529     538 1       1.20020000e+02    5.32790560e+02
    530     531     532 1       1.20830000e+02    5.08272320e+02
    530     531     536 1       1.20020000e+02    5.32790560e+02
    530     543     544 1       1.14530000e+02    3.58485120e+02
    530     543     545 1       1.24830000e+02    4.77729120e+02
    531     530     543 1       1.20640000e+02    5.08439680e+02
    531     532     533 1       1.10630000e+02    3.64928480e+02
    531     532     534 1       1.10630000e+02    3.64928480e+02
    531     532     535 1       1.10630000e+02    3.64928480e+02
    531     536     537 1       1.20020000e+02    5.32790560e+02
    531     536    6371 1       1.20640000e+02    5.08439680e+02
    532     531     536 1       1.20830000e+02    5.08272320e+02
    533     532     534 1       1.07730000e+02    2.99574400e+02
    533     532     535 1       1.07730000e+02    2.99574400e+02
    534     532     535 1       1.07730000e+02    2.99574400e+02
    536     537     538 1       1.20020000e+02    5.32790560e+02
    536     537    6369 1       1.20640000e+02    5.08439680e+02
    536    6371    6369 1       1.16810000e+02    4.91368960e+02
    536    6371    6372 1       1.14530000e+02    3.58485120e+02
    537     536    6371 1       1.20640000e+02    5.08439680e+02
    537    6369    6370 1       1.14530000e+02    3.58485120e+02
    537    6369    6371 1       1.16810000e+02    4.91368960e+02
    538     537    6369 1       1.20640000e+02    5.08439680e+02
    538     539     540 1       1.10630000e+02    3.64928480e+02
    538     539     541 1       1.10630000e+02    3.64928480e+02
    538     539     542 1       1.10630000e+02    3.64928480e+02
    539     538     537 1       1.20830000e+02    5.08272320e+02
    540     539     541 1       1.07730000e+02    2.99574400e+02
    540     539     542 1       1.07730000e+02    2.99574400e+02
    541     539     542 1       1.07730000e+02    2.99574400e+02
    543     545     546 1       1.12000000e+02    3.56811520e+02
    543     545     547 1       1.03090000e+02    5.20322240e+02
    544     543     545 1       1.13690000e+02    3.54217440e+02
    545     547     548 1       1.11170000e+02    3.56895200e+02
    545     547     549 1       1.11170000e+02    3.56895200e+02
    546     545     547 1       1.11170000e+02    3.56895200e+02
    548     547     549 1       1.07220000e+02    3.00494880e+02
    550     551     552 1       1.19880000e+02    3.75723200e+02
    553     557     558 1       1.10280000e+02    5.05761920e+02
    553     557     562 1       1.13070000e+02    5.03000480e+02
    553     557     586 1       1.13070000e+02    5.03000480e+02
    554     553     555 1       1.07730000e+02    2.99574400e+02
    554     553     556 1       1.07730000e+02    2.99574400e+02
    554     553     557 1       1.10530000e+02    3.60326080e+02
    555     553     556 1       1.07730000e+02    2.99574400e+02
    555     553     557 1       1.10530000e+02    3.60326080e+02
    556     553     557 1       1.10530000e+02    3.60326080e+02
    557     558     559 1       1.10530000e+02    3.60326080e+02
    557     558     560 1       1.10530000e+02    3.60326080e+02
    557     558     561 1       1.10530000e+02    3.60326080e+02
    557     562     563 1       1.10210000e+02    5.31033280e+02
    557     562     583 1       1.21870000e+02    5.06012960e+02
    557     586     585 1       1.10210000e+02    5.31033280e+02
    557     586     587 1       1.21870000e+02    5.06012960e+02
    558     557     562 1       1.13070000e+02    5.03000480e+02
    558     557     586 1       1.13070000e+02    5.03000480e+02
    559     558     560 1       1.07730000e+02    2.99574400e+02
    559     558     561 1       1.07730000e+02    2.99574400e+02
    560     558     561 1       1.07730000e+02    2.99574400e+02
    562     557     586 1       1.12520000e+02    5.08021280e+02
    562     563     564 1       1.18410000e+02    5.33794720e+02
    562     563     585 1       1.21100000e+02    5.12958400e+02
    562     583     582 1       1.20020000e+02    5.32790560e+02
    562     583     584 1       1.19880000e+02    3.75723200e+02
    563     562     583 1       1.20730000e+02    5.29945440e+02
    563     564     565 1       1.19820000e+02    3.74300640e+02
    563     564     566 1       1.20730000e+02    5.29945440e+02
    563     585     586 1       1.21100000e+02    5.12958400e+02
    563     585     620 1       1.21100000e+02    5.12958400e+02
    564     563     585 1       1.21100000e+02    5.12958400e+02
    564     566     567 1       1.20640000e+02    5.08439680e+02
    564     566     582 1       1.20020000e+02    5.32790560e+02
    565     564     566 1       1.19880000e+02    3.75723200e+02
    566     567     568 1       1.14530000e+02    3.58485120e+02
    566     567     569 1       1.16810000e+02    4.91368960e+02
    566     567     577 1       1.24830000e+02    4.77729120e+02
    566     582     569 1       1.20640000e+02    5.08439680e+02
    566     582     583 1       1.20020000e+02    5.32790560e+02
    567     566     582 1       1.20640000e+02    5.08439680e+02
    567     569     570 1       1.14760000e+02    3.49364000e+02
    567     569     571 1       1.22490000e+02    4.75804480e+02
    567     569     582 1       1.16810000e+02    4.91368960e+02
    567     577     575 1       9.60300000e+01    5.40070720e+02
    567     577     578 1       1.12000000e+02    3.56811520e+02
    567     577     579 1       1.03090000e+02    5.20322240e+02
    568     567     569 1       1.14760000e+02    3.49364000e+02
    568     567     577 1       1.13690000e+02    3.54217440e+02
    569     567     577 1       1.22490000e+02    4.75804480e+02
    569     571     572 1       1.12000000e+02    3.56811520e+02
    569     571     573 1       9.60300000e+01    5.40070720e+02
    569     571     579 1       1.03090000e+02    5.20322240e+02
    569     582     583 1       1.20640000e+02    5.08439680e+02
    570     569     571 1       1.13690000e+02    3.54217440e+02
    570     569     582 1       1.14530000e+02    3.58485120e+02
    571     569     582 1       1.24830000e+02    4.77729120e+02
    571     573     574 1       1.13690000e+02    3.54217440e+02
    571     573     575 1       1.22490000e+02    4.75804480e+02
    571     573    5780 1       1.24830000e+02    4.77729120e+02
    571     579     577 1       1.03830000e+02    5.17477120e+02
    571     579     580 1       1.11170000e+02    3.56895200e+02
    571     579     581 1       1.11170000e+02    3.56895200e+02
    572     571     579 1       1.11170000e+02    3.56895200e+02
    573     571     572 1       1.12000000e+02    3.56811520e+02
    573     575     576 1       1.14760000e+02    3.49364000e+02
    575     573     574 1       1.14760000e+02    3.49364000e+02
    575     577     578 1       1.12000000e+02    3.56811520e+02
    577     575     573 1       1.22490000e+02    4.75804480e+02
    577     575     576 1       1.13690000e+02    3.54217440e+02
    577     575    5781 1       1.24830000e+02    4.77729120e+02
    577     579     580 1       1.11170000e+02    3.56895200e+02
    577     579     581 1       1.11170000e+02    3.56895200e+02
    578     577     579 1       1.11170000e+02    3.56895200e+02
    579     571     573 1       1.03090000e+02    5.20322240e+02
    579     577     575 1       1.03090000e+02    5.20322240e+02
    580     579     581 1       1.07220000e+02    3.00494880e+02
    582     583     584 1       1.19880000e+02    3.75723200e+02
    585     586     587 1       1.20730000e+02    5.29945440e+02
    585     620     619 1       1.20730000e+02    5.29945440e+02
    585     620     621 1       1.19820000e+02    3.74300640e+02
    586     585     620 1       1.18410000e+02    5.33794720e+02
    586     587     588 1       1.19880000e+02    3.75723200e+02
    586     587     589 1       1.20020000e+02    5.32790560e+02
    587     589     590 1       1.20640000e+02    5.08439680e+02
    587     589     619 1       1.20020000e+02    5.32790560e+02
    588     587     589 1       1.19880000e+02    3.75723200e+02
    589     590     591 1       1.14530000e+02    3.58485120e+02
    589     590     592 1       1.16810000e+02    4.91368960e+02
    589     590     614 1       1.24830000e+02    4.77729120e+02
    589     619     592 1       1.20640000e+02    5.08439680e+02
    589     619     620 1       1.20020000e+02    5.32790560e+02
    590     589     619 1       1.20640000e+02    5.08439680e+02
    590     592     593 1       1.14760000e+02    3.49364000e+02
    590     592     594 1       1.22490000e+02    4.75804480e+02
    590     592     619 1       1.16810000e+02    4.91368960e+02
    590     614     612 1       9.60300000e+01    5.40070720e+02
    590     614     615 1       1.12000000e+02    3.56811520e+02
    590     614     616 1       1.03090000e+02    5.20322240e+02
    591     590     592 1       1.14760000e+02    3.49364000e+02
    591     590     614 1       1.13690000e+02    3.54217440e+02
    592     590     614 1       1.22490000e+02    4.75804480e+02
    592     594     595 1       1.12000000e+02    3.56811520e+02
    592     594     596 1       9.60300000e+01    5.40070720e+02
    592     594     616 1       1.03090000e+02    5.20322240e+02
    592     619     620 1       1.20640000e+02    5.08439680e+02
    593     592     594 1       1.13690000e+02    3.54217440e+02
    593     592     619 1       1.14530000e+02    3.58485120e+02
    594     592     619 1       1.24830000e+02    4.77729120e+02
    594     596     597 1       1.13690000e+02    3.54217440e+02
    594     596     598 1       1.24830000e+02    4.77729120e+02
    594     596     612 1       1.22490000e+02    4.75804480e+02
    594     616     614 1       1.03830000e+02    5.17477120e+02
    594     616     617 1       1.11170000e+02    3.56895200e+02
    594     616     618 1       1.11170000e+02    3.56895200e+02
    595     594     596 1       1.12000000e+02    3.56811520e+02
    595     594     616 1       1.11170000e+02    3.56895200e+02
    596     594     616 1       1.03090000e+02    5.20322240e+02
    596     598     599 1       1.20640000e+02    5.08439680e+02
    596     598     607 1       1.20640000e+02    5.08439680e+02
    596     612     599 1       1.16810000e+02    4.91368960e+02
    596     612     613 1       1.14760000e+02    3.49364000e+02
    596     612     614 1       1.22490000e+02    4.75804480e+02
    597     596     598 1       1.14530000e+02    3.58485120e+02
    597     596     612 1       1.14760000e+02    3.49364000e+02
    598     596     612 1       1.16810000e+02    4.91368960e+02
    598     599     600 1       1.20020000e+02    5.32790560e+02
    598     599     612 1       1.20640000e+02    5.08439680e+02
    598     607     606 1       1.20020000e+02    5.32790560e+02
    598     607     608 1       1.20830000e+02    5.08272320e+02
    599     598     607 1       1.20020000e+02    5.32790560e+02
    599     600     601 1       1.20830000e+02    5.08272320e+02
    599     600     605 1       1.20020000e+02    5.32790560e+02
    599     612     613 1       1.14530000e+02    3.58485120e+02
    599     612     614 1       1.24830000e+02    4.77729120e+02
    600     599     612 1       1.20640000e+02    5.08439680e+02
    600     601     602 1       1.10630000e+02    3.64928480e+02
    600     601     603 1       1.10630000e+02    3.64928480e+02
    600     601     604 1       1.10630000e+02    3.64928480e+02
    600     605     228 1       1.20640000e+02    5.08439680e+02
    600     605     606 1       1.20020000e+02    5.32790560e+02
    601     600     605 1       1.20830000e+02    5.08272320e+02
    602     601     603 1       1.07730000e+02    2.99574400e+02
    602     601     604 1       1.07730000e+02    2.99574400e+02
    603     601     604 1       1.07730000e+02    2.99574400e+02
    605     228     229 1       1.14530000e+02    3.58485120e+02
    605     228     230 1       1.16810000e+02    4.91368960e+02
    605     606     230 1       1.20640000e+02    5.08439680e+02
    605     606     607 1       1.20020000e+02    5.32790560e+02
    606     230     228 1       1.16810000e+02    4.91368960e+02
    606     230     231 1       1.14530000e+02    3.58485120e+02
    606     605     228 1       1.20640000e+02    5.08439680e+02
    607     606     230 1       1.20640000e+02    5.08439680e+02
    607     608     609 1       1.10630000e+02    3.64928480e+02
    607     608     610 1       1.10630000e+02    3.64928480e+02
    607     608     611 1       1.10630000e+02    3.64928480e+02
    608     607     606 1       1.20830000e+02    5.08272320e+02
    609     608     610 1       1.07730000e+02    2.99574400e+02
    609     608     611 1       1.07730000e+02    2.99574400e+02
    610     608     611 1       1.07730000e+02    2.99574400e+02
    612     614     615 1       1.12000000e+02    3.56811520e+02
    612     614     616 1       1.03090000e+02    5.20322240e+02
    613     612     614 1       1.13690000e+02    3.54217440e+02
    614     616     617 1       1.11170000e+02    3.56895200e+02
    614     616     618 1       1.11170000e+02    3.56895200e+02
    615     614     616 1       1.11170000e+02    3.56895200e+02
    617     616     618 1       1.07220000e+02    3.00494880e+02
    619     620     621 1       1.19880000e+02    3.75723200e+02
    622     626     627 1       1.10280000e+02    5.05761920e+02
    622     626     631 1       1.13070000e+02    5.03000480e+02
    622     626     655 1       1.13070000e+02    5.03000480e+02
    623     622     624 1       1.07730000e+02    2.99574400e+02
    623     622     625 1       1.07730000e+02    2.99574400e+02
    623     622     626 1       1.10530000e+02    3.60326080e+02
    624     622     625 1       1.07730000e+02    2.99574400e+02
    624     622     626 1       1.10530000e+02    3.60326080e+02
    625     622     626 1       1.10530000e+02    3.60326080e+02
    626     627     628 1       1.10530000e+02    3.60326080e+02
    626     627     629 1       1.10530000e+02    3.60326080e+02
    626     627     630 1       1.10530000e+02    3.60326080e+02
    626     631     632 1       1.10210000e+02    5.31033280e+02
    626     631     652 1       1.21870000e+02    5.06012960e+02
    626     655     654 1       1.10210000e+02    5.31033280e+02
    626     655     656 1       1.21870000e+02    5.06012960e+02
    627     626     631 1       1.13070000e+02    5.03000480e+02
    627     626     655 1       1.13070000e+02    5.03000480e+02
    628     627     629 1       1.07730000e+02    2.99574400e+02
    628     627     630 1       1.07730000e+02    2.99574400e+02
    629     627     630 1       1.07730000e+02    2.99574400e+02
    631     626     655 1       1.12520000e+02    5.08021280e+02
    631     632     633 1       1.18410000e+02    5.33794720e+02
    631     632     654 1       1.21100000e+02    5.12958400e+02
    631     652     651 1       1.20020000e+02    5.32790560e+02
    631     652     653 1       1.19880000e+02    3.75723200e+02
    632     631     652 1       1.20730000e+02    5.29945440e+02
    632     633     634 1       1.19820000e+02    3.74300640e+02
    632     633     635 1       1.20730000e+02    5.29945440e+02
    632     654     655 1       1.21100000e+02    5.12958400e+02
    632     654     689 1       1.21100000e+02    5.12958400e+02
    633     632     654 1       1.21100000e+02    5.12958400e+02
    633     635     636 1       1.20640000e+02    5.08439680e+02
    633     635     651 1       1.20020000e+02    5.32790560e+02
    634     633     635 1       1.19880000e+02    3.75723200e+02
    635     636     637 1       1.14530000e+02    3.58485120e+02
    635     636     638 1       1.16810000e+02    4.91368960e+02
    635     636     646 1       1.24830000e+02    4.77729120e+02
    635     651     638 1       1.20640000e+02    5.08439680e+02
    635     651     652 1       1.20020000e+02    5.32790560e+02
    636     635     651 1       1.20640000e+02    5.08439680e+02
    636     638     639 1       1.14760000e+02    3.49364000e+02
    636     638     640 1       1.22490000e+02    4.75804480e+02
    636     638     651 1       1.16810000e+02    4.91368960e+02
    636     646     644 1       9.60300000e+01    5.40070720e+02
    636     646     647 1       1.12000000e+02    3.56811520e+02
    636     646     648 1       1.03090000e+02    5.20322240e+02
    637     636     638 1       1.14760000e+02    3.49364000e+02
    637     636     646 1       1.13690000e+02    3.54217440e+02
    638     636     646 1       1.22490000e+02    4.75804480e+02
    638     640     641 1       1.12000000e+02    3.56811520e+02
    638     640     642 1       9.60300000e+01    5.40070720e+02
    638     640     648 1       1.03090000e+02    5.20322240e+02
    638     651     652 1       1.20640000e+02    5.08439680e+02
    639     638     640 1       1.13690000e+02    3.54217440e+02
    639     638     651 1       1.14530000e+02    3.58485120e+02
    640     638     651 1       1.24830000e+02    4.77729120e+02
    640     642     643 1       1.13690000e+02    3.54217440e+02
    640     642     644 1       1.22490000e+02    4.75804480e+02
    640     642    2400 1       1.24830000e+02    4.77729120e+02
    640     648     646 1       1.03830000e+02    5.17477120e+02
    640     648     649 1       1.11170000e+02    3.56895200e+02
    640     648     650 1       1.11170000e+02    3.56895200e+02
    641     640     648 1       1.11170000e+02    3.56895200e+02
    642     640     641 1       1.12000000e+02    3.56811520e+02
    642     644     645 1       1.14760000e+02    3.49364000e+02
    644     642     643 1       1.14760000e+02    3.49364000e+02
    644     646     647 1       1.12000000e+02    3.56811520e+02
    646     644     642 1       1.22490000e+02    4.75804480e+02
    646     644     645 1       1.13690000e+02    3.54217440e+02
    646     644    2399 1       1.24830000e+02    4.77729120e+02
    646     648     649 1       1.11170000e+02    3.56895200e+02
    646     648     650 1       1.11170000e+02    3.56895200e+02
    647     646     648 1       1.11170000e+02    3.56895200e+02
    648     640     642 1       1.03090000e+02    5.20322240e+02
    648     646     644 1       1.03090000e+02    5.20322240e+02
    649     648     650 1       1.07220000e+02    3.00494880e+02
    651     652     653 1       1.19880000e+02    3.75723200e+02
    654     655     656 1       1.20730000e+02    5.29945440e+02
    654     689     688 1       1.20730000e+02    5.29945440e+02
    654     689     690 1       1.19820000e+02    3.74300640e+02
    655     654     689 1       1.18410000e+02    5.33794720e+02
    655     656     657 1       1.19880000e+02    3.75723200e+02
    655     656     658 1       1.20020000e+02    5.32790560e+02
    656     658     659 1       1.20640000e+02    5.08439680e+02
    656     658     688 1       1.20020000e+02    5.32790560e+02
    657     656     658 1       1.19880000e+02    3.75723200e+02
    658     659     660 1       1.14530000e+02    3.58485120e+02
    658     659     661 1       1.16810000e+02    4.91368960e+02
    658     659     683 1       1.24830000e+02    4.77729120e+02
    658     688     661 1       1.20640000e+02    5.08439680e+02
    658     688     689 1       1.20020000e+02    5.32790560e+02
    659     658     688 1       1.20640000e+02    5.08439680e+02
    659     661     662 1       1.14760000e+02    3.49364000e+02
    659     661     663 1       1.22490000e+02    4.75804480e+02
    659     661     688 1       1.16810000e+02    4.91368960e+02
    659     683     681 1       9.60300000e+01    5.40070720e+02
    659     683     684 1       1.12000000e+02    3.56811520e+02
    659     683     685 1       1.03090000e+02    5.20322240e+02
    660     659     661 1       1.14760000e+02    3.49364000e+02
    660     659     683 1       1.13690000e+02    3.54217440e+02
    661     659     683 1       1.22490000e+02    4.75804480e+02
    661     663     664 1       1.12000000e+02    3.56811520e+02
    661     663     665 1       9.60300000e+01    5.40070720e+02
    661     663     685 1       1.03090000e+02    5.20322240e+02
    661     688     689 1       1.20640000e+02    5.08439680e+02
    662     661     663 1       1.13690000e+02    3.54217440e+02
    662     661     688 1       1.14530000e+02    3.58485120e+02
    663     661     688 1       1.24830000e+02    4.77729120e+02
    663     665     666 1       1.13690000e+02    3.54217440e+02
    663     665     667 1       1.24830000e+02    4.77729120e+02
    663     665     681 1       1.22490000e+02    4.75804480e+02
    663     685     683 1       1.03830000e+02    5.17477120e+02
    663     685     686 1       1.11170000e+02    3.56895200e+02
    663     685     687 1       1.11170000e+02    3.56895200e+02
    664     663     665 1       1.12000000e+02    3.56811520e+02
    664     663     685 1       1.11170000e+02    3.56895200e+02
    665     663     685 1       1.03090000e+02    5.20322240e+02
    665     667     668 1       1.20640000e+02    5.08439680e+02
    665     667     676 1       1.20640000e+02    5.08439680e+02
    665     681     668 1       1.16810000e+02    4.91368960e+02
    665     681     682 1       1.14760000e+02    3.49364000e+02
    665     681     683 1       1.22490000e+02    4.75804480e+02
    666     665     667 1       1.14530000e+02    3.58485120e+02
    666     665     681 1       1.14760000e+02    3.49364000e+02
    667     665     681 1       1.16810000e+02    4.91368960e+02
    667     668     669 1       1.20020000e+02    5.32790560e+02
    667     668     681 1       1.20640000e+02    5.08439680e+02
    667     676     675 1       1.20020000e+02    5.32790560e+02
    667     676     677 1       1.20830000e+02    5.08272320e+02
    668     667     676 1       1.20020000e+02    5.32790560e+02
    668     669     670 1       1.20830000e+02    5.08272320e+02
    668     669     674 1       1.20020000e+02    5.32790560e+02
    668     681     682 1       1.14530000e+02    3.58485120e+02
    668     681     683 1       1.24830000e+02    4.77729120e+02
    669     668     681 1       1.20640000e+02    5.08439680e+02
    669     670     671 1       1.10630000e+02    3.64928480e+02
    669     670     672 1       1.10630000e+02    3.64928480e+02
    669     670     673 1       1.10630000e+02    3.64928480e+02
    669     674     675 1       1.20020000e+02    5.32790560e+02
    669     674    2714 1       1.20640000e+02    5.08439680e+02
    670     669     674 1       1.20830000e+02    5.08272320e+02
    671     670     672 1       1.07730000e+02    2.99574400e+02
    671     670     673 1       1.07730000e+02    2.99574400e+02
    672     670     673 1       1.07730000e+02    2.99574400e+02
    674     675     676 1       1.20020000e+02    5.32790560e+02
    674     675    2712 1       1.20640000e+02    5.08439680e+02
    674    2714    2712 1       1.16810000e+02    4.91368960e+02
    674    2714    2715 1       1.14530000e+02    3.58485120e+02
    675     674    2714 1       1.20640000e+02    5.08439680e+02
    675    2712    2713 1       1.14530000e+02    3.58485120e+02
    675    2712    2714 1       1.16810000e+02    4.91368960e+02
    676     675    2712 1       1.20640000e+02    5.08439680e+02
    676     677     678 1       1.10630000e+02    3.64928480e+02
    676     677     679 1       1.10630000e+02    3.64928480e+02
    676     677     680 1       1.10630000e+02    3.64928480e+02
    677     676     675 1       1.20830000e+02    5.08272320e+02
    678     677     679 1       1.07730000e+02    2.99574400e+02
    678     677     680 1       1.07730000e+02    2.99574400e+02
    679     677     680 1       1.07730000e+02    2.99574400e+02
    681     683     684 1       1.12000000e+02    3.56811520e+02
    681     683     685 1       1.03090000e+02    5.20322240e+02
    682     681     683 1       1.13690000e+02    3.54217440e+02
    683     685     686 1       1.11170000e+02    3.56895200e+02
    683     685     687 1       1.11170000e+02    3.56895200e+02
    684     683     685 1       1.11170000e+02    3.56895200e+02
    686     685     687 1       1.07220000e+02    3.00494880e+02
    688     689     690 1       1.19880000e+02    3.75723200e+02
    691     695     696 1       1.10280000e+02    5.05761920e+02
    691     695     700 1       1.13070000e+02    5.03000480e+02
    691     695     724 1       1.13070000e+02    5.03000480e+02
    692     691     693 1       1.07730000e+02    2.99574400e+02
    692     691     694 1       1.07730000e+02    2.99574400e+02
    692     691     695 1       1.10530000e+02    3.60326080e+02
    693     691     694 1       1.07730000e+02    2.99574400e+02
    693     691     695 1       1.10530000e+02    3.60326080e+02
    694     691     695 1       1.10530000e+02    3.60326080e+02
    695     696     697 1       1.10530000e+02    3.60326080e+02
    695     696     698 1       1.10530000e+02    3.60326080e+02
    695     696     699 1       1.10530000e+02    3.60326080e+02
    695     700     701 1       1.10210000e+02    5.31033280e+02
    695     700     721 1       1.21870000e+02    5.06012960e+02
    695     724     723 1       1.10210000e+02    5.31033280e+02
    695     724     725 1       1.21870000e+02    5.06012960e+02
    696     695     700 1       1.13070000e+02    5.03000480e+02
    696     695     724 1       1.13070000e+02    5.03000480e+02
    697     696     698 1       1.07730000e+02    2.99574400e+02
    697     696     699 1       1.07730000e+02    2.99574400e+02
    698     696     699 1       1.07730000e+02    2.99574400e+02
    700     695     724 1       1.12520000e+02    5.08021280e+02
    700     701     702 1       1.18410000e+02    5.33794720e+02
    700     701     723 1       1.21100000e+02    5.12958400e+02
    700     721     720 1       1.20020000e+02    5.32790560e+02
    700     721     722 1       1.19880000e+02    3.75723200e+02
    701     700     721 1       1.20730000e+02    5.29945440e+02
    701     702     703 1       1.19820000e+02    3.74300640e+02
    701     702     704 1       1.20730000e+02    5.29945440e+02
    701     723     724 1       1.21100000e+02    5.12958400e+02
    701     723     758 1       1.21100000e+02    5.12958400e+02
    702     701     723 1       1.21100000e+02    5.12958400e+02
    702     704     705 1       1.20640000e+02    5.08439680e+02
    702     704     720 1       1.20020000e+02    5.32790560e+02
    703     702     704 1       1.19880000e+02    3.75723200e+02
    704     705     706 1       1.14530000e+02    3.58485120e+02
    704     705     707 1       1.16810000e+02    4.91368960e+02
    704     705     715 1       1.24830000e+02    4.77729120e+02
    704     720     707 1       1.20640000e+02    5.08439680e+02
    704     720     721 1       1.20020000e+02    5.32790560e+02
    705     704     720 1       1.20640000e+02    5.08439680e+02
    705     707     708 1       1.14760000e+02    3.49364000e+02
    705     707     709 1       1.22490000e+02    4.75804480e+02
    705     707     720 1       1.16810000e+02    4.91368960e+02
    705     715     713 1       9.60300000e+01    5.40070720e+02
    705     715     716 1       1.12000000e+02    3.56811520e+02
    705     715     717 1       1.03090000e+02    5.20322240e+02
    706     705     707 1       1.14760000e+02    3.49364000e+02
    706     705     715 1       1.13690000e+02    3.54217440e+02
    707     705     715 1       1.22490000e+02    4.75804480e+02
    707     709     710 1       1.12000000e+02    3.56811520e+02
    707     709     711 1       9.60300000e+01    5.40070720e+02
    707     709     717 1       1.03090000e+02    5.20322240e+02
    707     720     721 1       1.20640000e+02    5.08439680e+02
    708     707     709 1       1.13690000e+02    3.54217440e+02
    708     707     720 1       1.14530000e+02    3.58485120e+02
    709     707     720 1       1.24830000e+02    4.77729120e+02
    709     711     712 1       1.13690000e+02    3.54217440e+02
    709     711     713 1       1.22490000e+02    4.75804480e+02
    709     711    4263 1       1.24830000e+02    4.77729120e+02
    709     717     715 1       1.03830000e+02    5.17477120e+02
    709     717     718 1       1.11170000e+02    3.56895200e+02
    709     717     719 1       1.11170000e+02    3.56895200e+02
    710     709     717 1       1.11170000e+02    3.56895200e+02
    711     709     710 1       1.12000000e+02    3.56811520e+02
    711     713     714 1       1.14760000e+02    3.49364000e+02
    713     711     712 1       1.14760000e+02    3.49364000e+02
    713     715     716 1       1.12000000e+02    3.56811520e+02
    715     713     711 1       1.22490000e+02    4.75804480e+02
    715     713     714 1       1.13690000e+02    3.54217440e+02
    715     713    4262 1       1.24830000e+02    4.77729120e+02
    715     717     718 1       1.11170000e+02    3.56895200e+02
    715     717     719 1       1.11170000e+02    3.56895200e+02
    716     715     717 1       1.11170000e+02    3.56895200e+02
    717     709     711 1       1.03090000e+02    5.20322240e+02
    717     715     713 1       1.03090000e+02    5.20322240e+02
    718     717     719 1       1.07220000e+02    3.00494880e+02
    720     721     722 1       1.19880000e+02    3.75723200e+02
    723     724     725 1       1.20730000e+02    5.29945440e+02
    723     758     757 1       1.20730000e+02    5.29945440e+02
    723     758     759 1       1.19820000e+02    3.74300640e+02
    724     723     758 1       1.18410000e+02    5.33794720e+02
    724     725     726 1       1.19880000e+02    3.75723200e+02
    724     725     727 1       1.20020000e+02    5.32790560e+02
    725     727     728 1       1.20640000e+02    5.08439680e+02
    725     727     757 1       1.20020000e+02    5.32790560e+02
    726     725     727 1       1.19880000e+02    3.75723200e+02
    727     728     729 1       1.14530000e+02    3.58485120e+02
    727     728     730 1       1.16810000e+02    4.91368960e+02
    727     728     752 1       1.24830000e+02    4.77729120e+02
    727     757     730 1       1.20640000e+02    5.08439680e+02
    727     757     758 1       1.20020000e+02    5.32790560e+02
    728     727     757 1       1.20640000e+02    5.08439680e+02
    728     730     731 1       1.14760000e+02    3.49364000e+02
    728     730     732 1       1.22490000e+02    4.75804480e+02
    728     730     757 1       1.16810000e+02    4.91368960e+02
    728     752     750 1       9.60300000e+01    5.40070720e+02
    728     752     753 1       1.12000000e+02    3.56811520e+02
    728     752     754 1       1.03090000e+02    5.20322240e+02
    729     728     730 1       1.14760000e+02    3.49364000e+02
    729     728     752 1       1.13690000e+02    3.54217440e+02
    730     728     752 1       1.22490000e+02    4.75804480e+02
    730     732     733 1       1.12000000e+02    3.56811520e+02
    730     732     734 1       9.60300000e+01    5.40070720e+02
    730     732     754 1       1.03090000e+02    5.20322240e+02
    730     757     758 1       1.20640000e+02    5.08439680e+02
    731     730     732 1       1.13690000e+02    3.54217440e+02
    731     730     757 1       1.14530000e+02    3.58485120e+02
    732     730     757 1       1.24830000e+02    4.77729120e+02
    732     734     735 1       1.13690000e+02    3.54217440e+02
    732     734     736 1       1.24830000e+02    4.77729120e+02
    732     734     750 1       1.22490000e+02    4.75804480e+02
    732     754     752 1       1.03830000e+02    5.17477120e+02
    732     754     755 1       1.11170000e+02    3.56895200e+02
    732     754     756 1       1.11170000e+02    3.56895200e+02
    733     732     734 1       1.12000000e+02    3.56811520e+02
    733     732     754 1       1.11170000e+02    3.56895200e+02
    734     732     754 1       1.03090000e+02    5.20322240e+02
    734     736     737 1       1.20640000e+02    5.08439680e+02
    734     736     745 1       1.20640000e+02    5.08439680e+02
    734     750     737 1       1.16810000e+02    4.91368960e+02
    734     750     751 1       1.14760000e+02    3.49364000e+02
    734     750     752 1       1.22490000e+02    4.75804480e+02
    735     734     736 1       1.14530000e+02    3.58485120e+02
    735     734     750 1       1.14760000e+02    3.49364000e+02
    736     734     750 1       1.16810000e+02    4.91368960e+02
    736     737     738 1       1.20020000e+02    5.32790560e+02
    736     737     750 1       1.20640000e+02    5.08439680e+02
    736     745     744 1       1.20020000e+02    5.32790560e+02
    736     745     746 1       1.20830000e+02    5.08272320e+02
    737     736     745 1       1.20020000e+02    5.32790560e+02
    737     738     739 1       1.20830000e+02    5.08272320e+02
    737     738     743 1       1.20020000e+02    5.32790560e+02
    737     750     751 1       1.14530000e+02    3.58485120e+02
    737     750     752 1       1.24830000e+02    4.77729120e+02
    738     737     750 1       1.20640000e+02    5.08439680e+02
    738     739     740 1       1.10630000e+02    3.64928480e+02
    738     739     741 1       1.10630000e+02    3.64928480e+02
    738     739     742 1       1.10630000e+02    3.64928480e+02
    738     743     744 1       1.20020000e+02    5.32790560e+02
    738     743    2367 1       1.20640000e+02    5.08439680e+02
    739     738     743 1       1.20830000e+02    5.08272320e+02
    740     739     741 1       1.07730000e+02    2.99574400e+02
    740     739     742 1       1.07730000e+02    2.99574400e+02
    741     739     742 1       1.07730000e+02    2.99574400e+02
    743     744     745 1       1.20020000e+02    5.32790560e+02
    743     744    2369 1       1.20640000e+02    5.08439680e+02
    743    2367    2368 1       1.14530000e+02    3.58485120e+02
    743    2367    2369 1       1.16810000e+02    4.91368960e+02
    744     743    2367 1       1.20640000e+02    5.08439680e+02
    744    2369    2367 1       1.16810000e+02    4.91368960e+02
    744    2369    2370 1       1.14530000e+02    3.58485120e+02
    745     744    2369 1       1.20640000e+02    5.08439680e+02
    745     746     747 1       1.10630000e+02    3.64928480e+02
    745     746     748 1       1.10630000e+02    3.64928480e+02
    745     746     749 1       1.10630000e+02    3.64928480e+02
    746     745     744 1       1.20830000e+02    5.08272320e+02
    747     746     748 1       1.07730000e+02    2.99574400e+02
    747     746     749 1       1.07730000e+02    2.99574400e+02
    748     746     749 1       1.07730000e+02    2.99574400e+02
    750     752     753 1       1.12000000e+02    3.56811520e+02
    750     752     754 1       1.03090000e+02    5.20322240e+02
    751     750     752 1       1.13690000e+02    3.54217440e+02
    752     754     755 1       1.11170000e+02    3.56895200e+02
    752     754     756 1       1.11170000e+02    3.56895200e+02
    753     752     754 1       1.11170000e+02    3.56895200e+02
    755     754     756 1       1.07220000e+02    3.00494880e+02
    757     758     759 1       1.19880000e+02    3.75723200e+02
    760     764     765 1       1.10280000e+02    5.05761920e+02
    760     764     769 1       1.13070000e+02    5.03000480e+02
    760     764     793 1       1.13070000e+02    5.03000480e+02
    761     760     762 1       1.07730000e+02    2.99574400e+02
    761     760     763 1       1.07730000e+02    2.99574400e+02
    761     760     764 1       1.10530000e+02    3.60326080e+02
    762     760     763 1       1.07730000e+02    2.99574400e+02
    762     760     764 1       1.10530000e+02    3.60326080e+02
    763     760     764 1       1.10530000e+02    3.60326080e+02
    764     765     766 1       1.10530000e+02    3.60326080e+02
    764     765     767 1       1.10530000e+02    3.60326080e+02
    764     765     768 1       1.10530000e+02    3.60326080e+02
    764     769     770 1       1.10210000e+02    5.31033280e+02
    764     769     790 1       1.21870000e+02    5.06012960e+02
    764     793     792 1       1.10210000e+02    5.31033280e+02
    764     793     794 1       1.21870000e+02    5.06012960e+02
    765     764     769 1       1.13070000e+02    5.03000480e+02
    765     764     793 1       1.13070000e+02    5.03000480e+02
    766     765     767 1       1.07730000e+02    2.99574400e+02
    766     765     768 1       1.07730000e+02    2.99574400e+02
    767     765     768 1       1.07730000e+02    2.99574400e+02
    769     764     793 1       1.12520000e+02    5.08021280e+02
    769     770     771 1       1.18410000e+02    5.33794720e+02
    769     770     792 1       1.21100000e+02    5.12958400e+02
    769     790     789 1       1.20020000e+02    5.32790560e+02
    769     790     791 1       1.19880000e+02    3.75723200e+02
    770     769     790 1       1.20730000e+02    5.29945440e+02
    770     771     772 1       1.19820000e+02    3.74300640e+02
    770     771     773 1       1.20730000e+02    5.29945440e+02
    770     792     793 1       1.21100000e+02    5.12958400e+02
    770     792     827 1       1.21100000e+02    5.12958400e+02
    771     770     792 1       1.21100000e+02    5.12958400e+02
    771     773     774 1       1.20640000e+02    5.08439680e+02
    771     773     789 1       1.20020000e+02    5.32790560e+02
    772     771     773 1       1.19880000e+02    3.75723200e+02
    773     774     775 1       1.14530000e+02    3.58485120e+02
    773     774     776 1       1.16810000e+02    4.91368960e+02
    773     774     784 1       1.24830000e+02    4.77729120e+02
    773     789     776 1       1.20640000e+02    5.08439680e+02
    773     789     790 1       1.20020000e+02    5.32790560e+02
    774     773     789 1       1.20640000e+02    5.08439680e+02
    774     776     777 1       1.14760000e+02    3.49364000e+02
    774     776     778 1       1.22490000e+02    4.75804480e+02
    774     776     789 1       1.16810000e+02    4.91368960e+02
    774     784     782 1       9.60300000e+01    5.40070720e+02
    774     784     785 1       1.12000000e+02    3.56811520e+02
    774     784     786 1       1.03090000e+02    5.20322240e+02
    775     774     776 1       1.14760000e+02    3.49364000e+02
    775     774     784 1       1.13690000e+02    3.54217440e+02
    776     774     784 1       1.22490000e+02    4.75804480e+02
    776     778     779 1       1.12000000e+02    3.56811520e+02
    776     778     780 1       9.60300000e+01    5.40070720e+02
    776     778     786 1       1.03090000e+02    5.20322240e+02
    776     789     790 1       1.20640000e+02    5.08439680e+02
    777     776     778 1       1.13690000e+02    3.54217440e+02
    777     776     789 1       1.14530000e+02    3.58485120e+02
    778     776     789 1       1.24830000e+02    4.77729120e+02
    778     780     781 1       1.13690000e+02    3.54217440e+02
    778     780     782 1       1.22490000e+02    4.75804480e+02
    778     780    3090 1       1.24830000e+02    4.77729120e+02
    778     786     784 1       1.03830000e+02    5.17477120e+02
    778     786     787 1       1.11170000e+02    3.56895200e+02
    778     786     788 1       1.11170000e+02    3.56895200e+02
    779     778     786 1       1.11170000e+02    3.56895200e+02
    780     778     779 1       1.12000000e+02    3.56811520e+02
    780     782     783 1       1.14760000e+02    3.49364000e+02
    782     780     781 1       1.14760000e+02    3.49364000e+02
    782     784     785 1       1.12000000e+02    3.56811520e+02
    784     782     780 1       1.22490000e+02    4.75804480e+02
    784     782     783 1       1.13690000e+02    3.54217440e+02
    784     782    3089 1       1.24830000e+02    4.77729120e+02
    784     786     787 1       1.11170000e+02    3.56895200e+02
    784     786     788 1       1.11170000e+02    3.56895200e+02
    785     784     786 1       1.11170000e+02    3.56895200e+02
    786     778     780 1       1.03090000e+02    5.20322240e+02
    786     784     782 1       1.03090000e+02    5.20322240e+02
    787     786     788 1       1.07220000e+02    3.00494880e+02
    789     790     791 1       1.19880000e+02    3.75723200e+02
    792     793     794 1       1.20730000e+02    5.29945440e+02
    792     827     826 1       1.20730000e+02    5.29945440e+02
    792     827     828 1       1.19820000e+02    3.74300640e+02
    793     792     827 1       1.18410000e+02    5.33794720e+02
    793     794     795 1       1.19880000e+02    3.75723200e+02
    793     794     796 1       1.20020000e+02    5.32790560e+02
    794     796     797 1       1.20640000e+02    5.08439680e+02
    794     796     826 1       1.20020000e+02    5.32790560e+02
    795     794     796 1       1.19880000e+02    3.75723200e+02
    796     797     798 1       1.14530000e+02    3.58485120e+02
    796     797     799 1       1.16810000e+02    4.91368960e+02
    796     797     821 1       1.24830000e+02    4.77729120e+02
    796     826     799 1       1.20640000e+02    5.08439680e+02
    796     826     827 1       1.20020000e+02    5.32790560e+02
    797     796     826 1       1.20640000e+02    5.08439680e+02
    797     799     800 1       1.14760000e+02    3.49364000e+02
    797     799     801 1       1.22490000e+02    4.75804480e+02
    797     799     826 1       1.16810000e+02    4.91368960e+02
    797     821     819 1       9.60300000e+01    5.40070720e+02
    797     821     822 1       1.12000000e+02    3.56811520e+02
    797     821     823 1       1.03090000e+02    5.20322240e+02
    798     797     799 1       1.14760000e+02    3.49364000e+02
    798     797     821 1       1.13690000e+02    3.54217440e+02
    799     797     821 1       1.22490000e+02    4.75804480e+02
    799     801     802 1       1.12000000e+02    3.56811520e+02
    799     801     803 1       9.60300000e+01    5.40070720e+02
    799     801     823 1       1.03090000e+02    5.20322240e+02
    799     826     827 1       1.20640000e+02    5.08439680e+02
    800     799     801 1       1.13690000e+02    3.54217440e+02
    800     799     826 1       1.14530000e+02    3.58485120e+02
    801     799     826 1       1.24830000e+02    4.77729120e+02
    801     803     804 1       1.13690000e+02    3.54217440e+02
    801     803     805 1       1.24830000e+02    4.77729120e+02
    801     803     819 1       1.22490000e+02    4.75804480e+02
    801     823     821 1       1.03830000e+02    5.17477120e+02
    801     823     824 1       1.11170000e+02    3.56895200e+02
    801     823     825 1       1.11170000e+02    3.56895200e+02
    802     801     803 1       1.12000000e+02    3.56811520e+02
    802     801     823 1       1.11170000e+02    3.56895200e+02
    803     801     823 1       1.03090000e+02    5.20322240e+02
    803     805     806 1       1.20640000e+02    5.08439680e+02
    803     805     814 1       1.20640000e+02    5.08439680e+02
    803     819     806 1       1.16810000e+02    4.91368960e+02
    803     819     820 1       1.14760000e+02    3.49364000e+02
    803     819     821 1       1.22490000e+02    4.75804480e+02
    804     803     805 1       1.14530000e+02    3.58485120e+02
    804     803     819 1       1.14760000e+02    3.49364000e+02
    805     803     819 1       1.16810000e+02    4.91368960e+02
    805     806     807 1       1.20020000e+02    5.32790560e+02
    805     806     819 1       1.20640000e+02    5.08439680e+02
    805     814     813 1       1.20020000e+02    5.32790560e+02
    805     814     815 1       1.20830000e+02    5.08272320e+02
    806     805     814 1       1.20020000e+02    5.32790560e+02
    806     807     808 1       1.20830000e+02    5.08272320e+02
    806     807     812 1       1.20020000e+02    5.32790560e+02
    806     819     820 1       1.14530000e+02    3.58485120e+02
    806     819     821 1       1.24830000e+02    4.77729120e+02
    807     806     819 1       1.20640000e+02    5.08439680e+02
    807     808     809 1       1.10630000e+02    3.64928480e+02
    807     808     810 1       1.10630000e+02    3.64928480e+02
    807     808     811 1       1.10630000e+02    3.64928480e+02
    807     812     813 1       1.20020000e+02    5.32790560e+02
    807     812    3473 1       1.20640000e+02    5.08439680e+02
    808     807     812 1       1.20830000e+02    5.08272320e+02
    809     808     810 1       1.07730000e+02    2.99574400e+02
    809     808     811 1       1.07730000e+02    2.99574400e+02
    810     808     811 1       1.07730000e+02    2.99574400e+02
    812     813     814 1       1.20020000e+02    5.32790560e+02
    812     813    3471 1       1.20640000e+02    5.08439680e+02
    812    3473    3471 1       1.16810000e+02    4.91368960e+02
    812    3473    3474 1       1.14530000e+02    3.58485120e+02
    813     812    3473 1       1.20640000e+02    5.08439680e+02
    813    3471    3472 1       1.14530000e+02    3.58485120e+02
    813    3471    3473 1       1.16810000e+02    4.91368960e+02
    814     813    3471 1       1.20640000e+02    5.08439680e+02
    814     815     816 1       1.10630000e+02    3.64928480e+02
    814     815     817 1       1.10630000e+02    3.64928480e+02
    814     815     818 1       1.10630000e+02    3.64928480e+02
    815     814     813 1       1.20830000e+02    5.08272320e+02
    816     815     817 1       1.07730000e+02    2.99574400e+02
    816     815     818 1       1.07730000e+02    2.99574400e+02
    817     815     818 1       1.07730000e+02    2.99574400e+02
    819     821     822 1       1.12000000e+02    3.56811520e+02
    819     821     823 1       1.03090000e+02    5.20322240e+02
    820     819     821 1       1.13690000e+02    3.54217440e+02
    821     823     824 1       1.11170000e+02    3.56895200e+02
    821     823     825 1       1.11170000e+02    3.56895200e+02
    822     821     823 1       1.11170000e+02    3.56895200e+02
    824     823     825 1       1.07220000e+02    3.00494880e+02
    826     827     828 1       1.19880000e+02    3.75723200e+02
    829     833     834 1       1.10280000e+02    5.05761920e+02
    829     833     838 1       1.13070000e+02    5.03000480e+02
    829     833     862 1       1.13070000e+02    5.03000480e+02
    830     829     831 1       1.07730000e+02    2.99574400e+02
    830     829     832 1       1.07730000e+02    2.99574400e+02
    830     829     833 1       1.10530000e+02    3.60326080e+02
    831     829     832 1       1.07730000e+02    2.99574400e+02
    831     829     833 1       1.10530000e+02    3.60326080e+02
    832     829     833 1       1.10530000e+02    3.60326080e+02
    833     834     835 1       1.10530000e+02    3.60326080e+02
    833     834     836 1       1.10530000e+02    3.60326080e+02
    833     834     837 1       1.10530000e+02    3.60326080e+02
    833     838     839 1       1.10210000e+02    5.31033280e+02
    833     838     859 1       1.21870000e+02    5.06012960e+02
    833     862     861 1       1.10210000e+02    5.31033280e+02
    833     862     863 1       1.21870000e+02    5.06012960e+02
    834     833     838 1       1.13070000e+02    5.03000480e+02
    834     833     862 1       1.13070000e+02    5.03000480e+02
    835     834     836 1       1.07730000e+02    2.99574400e+02
    835     834     837 1       1.07730000e+02    2.99574400e+02
    836     834     837 1       1.07730000e+02    2.99574400e+02
    838     833     862 1       1.12520000e+02    5.08021280e+02
    838     839     840 1       1.18410000e+02    5.33794720e+02
    838     839     861 1       1.21100000e+02    5.12958400e+02
    838     859     858 1       1.20020000e+02    5.32790560e+02
    838     859     860 1       1.19880000e+02    3.75723200e+02
    839     838     859 1       1.20730000e+02    5.29945440e+02
    839     840     841 1       1.19820000e+02    3.74300640e+02
    839     840     842 1       1.20730000e+02    5.29945440e+02
    839     861     862 1       1.21100000e+02    5.12958400e+02
    839     861     896 1       1.21100000e+02    5.12958400e+02
    840     839     861 1       1.21100000e+02    5.12958400e+02
    840     842     843 1       1.20640000e+02    5.08439680e+02
    840     842     858 1       1.20020000e+02    5.32790560e+02
    841     840     842 1       1.19880000e+02    3.75723200e+02
    842     843     844 1       1.14530000e+02    3.58485120e+02
    842     843     845 1       1.16810000e+02    4.91368960e+02
    842     843     853 1       1.24830000e+02    4.77729120e+02
    842     858     845 1       1.20640000e+02    5.08439680e+02
    842     858     859 1       1.20020000e+02    5.32790560e+02
    843     842     858 1       1.20640000e+02    5.08439680e+02
    843     845     846 1       1.14760000e+02    3.49364000e+02
    843     845     847 1       1.22490000e+02    4.75804480e+02
    843     845     858 1       1.16810000e+02    4.91368960e+02
    843     853     851 1       9.60300000e+01    5.40070720e+02
    843     853     854 1       1.12000000e+02    3.56811520e+02
    843     853     855 1       1.03090000e+02    5.20322240e+02
    844     843     845 1       1.14760000e+02    3.49364000e+02
    844     843     853 1       1.13690000e+02    3.54217440e+02
    845     843     853 1       1.22490000e+02    4.75804480e+02
    845     847     848 1       1.12000000e+02    3.56811520e+02
    845     847     849 1       9.60300000e+01    5.40070720e+02
    845     847     855 1       1.03090000e+02    5.20322240e+02
    845     858     859 1       1.20640000e+02    5.08439680e+02
    846     845     847 1       1.13690000e+02    3.54217440e+02
    846     845     858 1       1.14530000e+02    3.58485120e+02
    847     845     858 1       1.24830000e+02    4.77729120e+02
    847     849     850 1       1.13690000e+02    3.54217440e+02
    847     849     851 1       1.22490000e+02    4.75804480e+02
    847     849    6194 1       1.24830000e+02    4.77729120e+02
    847     855     853 1       1.03830000e+02    5.17477120e+02
    847     855     856 1       1.11170000e+02    3.56895200e+02
    847     855     857 1       1.11170000e+02    3.56895200e+02
    848     847     855 1       1.11170000e+02    3.56895200e+02
    849     847     848 1       1.12000000e+02    3.56811520e+02
    849     851     852 1       1.14760000e+02    3.49364000e+02
    851     849     850 1       1.14760000e+02    3.49364000e+02
    851     853     854 1       1.12000000e+02    3.56811520e+02
    853     851     849 1       1.22490000e+02    4.75804480e+02
    853     851     852 1       1.13690000e+02    3.54217440e+02
    853     851    6195 1       1.24830000e+02    4.77729120e+02
    853     855     856 1       1.11170000e+02    3.56895200e+02
    853     855     857 1       1.11170000e+02    3.56895200e+02
    854     853     855 1       1.11170000e+02    3.56895200e+02
    855     847     849 1       1.03090000e+02    5.20322240e+02
    855     853     851 1       1.03090000e+02    5.20322240e+02
    856     855     857 1       1.07220000e+02    3.00494880e+02
    858     859     860 1       1.19880000e+02    3.75723200e+02
    861     862     863 1       1.20730000e+02    5.29945440e+02
    861     896     895 1       1.20730000e+02    5.29945440e+02
    861     896     897 1       1.19820000e+02    3.74300640e+02
    862     861     896 1       1.18410000e+02    5.33794720e+02
    862     863     864 1       1.19880000e+02    3.75723200e+02
    862     863     865 1       1.20020000e+02    5.32790560e+02
    863     865     866 1       1.20640000e+02    5.08439680e+02
    863     865     895 1       1.20020000e+02    5.32790560e+02
    864     863     865 1       1.19880000e+02    3.75723200e+02
    865     866     867 1       1.14530000e+02    3.58485120e+02
    865     866     868 1       1.16810000e+02    4.91368960e+02
    865     866     890 1       1.24830000e+02    4.77729120e+02
    865     895     868 1       1.20640000e+02    5.08439680e+02
    865     895     896 1       1.20020000e+02    5.32790560e+02
    866     865     895 1       1.20640000e+02    5.08439680e+02
    866     868     869 1       1.14760000e+02    3.49364000e+02
    866     868     870 1       1.22490000e+02    4.75804480e+02
    866     868     895 1       1.16810000e+02    4.91368960e+02
    866     890     888 1       9.60300000e+01    5.40070720e+02
    866     890     891 1       1.12000000e+02    3.56811520e+02
    866     890     892 1       1.03090000e+02    5.20322240e+02
    867     866     868 1       1.14760000e+02    3.49364000e+02
    867     866     890 1       1.13690000e+02    3.54217440e+02
    868     866     890 1       1.22490000e+02    4.75804480e+02
    868     870     871 1       1.12000000e+02    3.56811520e+02
    868     870     872 1       9.60300000e+01    5.40070720e+02
    868     870     892 1       1.03090000e+02    5.20322240e+02
    868     895     896 1       1.20640000e+02    5.08439680e+02
    869     868     870 1       1.13690000e+02    3.54217440e+02
    869     868     895 1       1.14530000e+02    3.58485120e+02
    870     868     895 1       1.24830000e+02    4.77729120e+02
    870     872     873 1       1.13690000e+02    3.54217440e+02
    870     872     874 1       1.24830000e+02    4.77729120e+02
    870     872     888 1       1.22490000e+02    4.75804480e+02
    870     892     890 1       1.03830000e+02    5.17477120e+02
    870     892     893 1       1.11170000e+02    3.56895200e+02
    870     892     894 1       1.11170000e+02    3.56895200e+02
    871     870     872 1       1.12000000e+02    3.56811520e+02
    871     870     892 1       1.11170000e+02    3.56895200e+02
    872     870     892 1       1.03090000e+02    5.20322240e+02
    872     874     875 1       1.20640000e+02    5.08439680e+02
    872     874     883 1       1.20640000e+02    5.08439680e+02
    872     888     875 1       1.16810000e+02    4.91368960e+02
    872     888     889 1       1.14760000e+02    3.49364000e+02
    872     888     890 1       1.22490000e+02    4.75804480e+02
    873     872     874 1       1.14530000e+02    3.58485120e+02
    873     872     888 1       1.14760000e+02    3.49364000e+02
    874     872     888 1       1.16810000e+02    4.91368960e+02
    874     875     876 1       1.20020000e+02    5.32790560e+02
    874     875     888 1       1.20640000e+02    5.08439680e+02
    874     883     882 1       1.20020000e+02    5.32790560e+02
    874     883     884 1       1.20830000e+02    5.08272320e+02
    875     874     883 1       1.20020000e+02    5.32790560e+02
    875     876     877 1       1.20830000e+02    5.08272320e+02
    875     876     881 1       1.20020000e+02    5.32790560e+02
    875     888     889 1       1.14530000e+02    3.58485120e+02
    875     888     890 1       1.24830000e+02    4.77729120e+02
    876     875     888 1       1.20640000e+02    5.08439680e+02
    876     877     878 1       1.10630000e+02    3.64928480e+02
    876     877     879 1       1.10630000e+02    3.64928480e+02
    876     877     880 1       1.10630000e+02    3.64928480e+02
    876     881     159 1       1.20640000e+02    5.08439680e+02
    876     881     882 1       1.20020000e+02    5.32790560e+02
    877     876     881 1       1.20830000e+02    5.08272320e+02
    878     877     879 1       1.07730000e+02    2.99574400e+02
    878     877     880 1       1.07730000e+02    2.99574400e+02
    879     877     880 1       1.07730000e+02    2.99574400e+02
    881     159     160 1       1.14530000e+02    3.58485120e+02
    881     159     161 1       1.16810000e+02    4.91368960e+02
    881     882     161 1       1.20640000e+02    5.08439680e+02
    881     882     883 1       1.20020000e+02    5.32790560e+02
    882     161     159 1       1.16810000e+02    4.91368960e+02
    882     161     162 1       1.14530000e+02    3.58485120e+02
    882     881     159 1       1.20640000e+02    5.08439680e+02
    883     882     161 1       1.20640000e+02    5.08439680e+02
    883     884     885 1       1.10630000e+02    3.64928480e+02
    883     884     886 1       1.10630000e+02    3.64928480e+02
    883     884     887 1       1.10630000e+02    3.64928480e+02
    884     883     882 1       1.20830000e+02    5.08272320e+02
    885     884     886 1       1.07730000e+02    2.99574400e+02
    885     884     887 1       1.07730000e+02    2.99574400e+02
    886     884     887 1       1.07730000e+02    2.99574400e+02
    888     890     891 1       1.12000000e+02    3.56811520e+02
    888     890     892 1       1.03090000e+02    5.20322240e+02
    889     888     890 1       1.13690000e+02    3.54217440e+02
    890     892     893 1       1.11170000e+02    3.56895200e+02
    890     892     894 1       1.11170000e+02    3.56895200e+02
    891     890     892 1       1.11170000e+02    3.56895200e+02
    893     892     894 1       1.07220000e+02    3.00494880e+02
    895     896     897 1       1.19880000e+02    3.75723200e+02
    898     902     903 1       1.10280000e+02    5.05761920e+02
    898     902     907 1       1.13070000e+02    5.03000480e+02
    898     902     931 1       1.13070000e+02    5.03000480e+02
    899     898     900 1       1.07730000e+02    2.99574400e+02
    899     898     901 1       1.07730000e+02    2.99574400e+02
    899     898     902 1       1.10530000e+02    3.60326080e+02
    900     898     901 1       1.07730000e+02    2.99574400e+02
    900     898     902 1       1.10530000e+02    3.60326080e+02
    901     898     902 1       1.10530000e+02    3.60326080e+02
    902     903     904 1       1.10530000e+02    3.60326080e+02
    902     903     905 1       1.10530000e+02    3.60326080e+02
    902     903     906 1       1.10530000e+02    3.60326080e+02
    902     907     908 1       1.10210000e+02    5.31033280e+02
    902     907     928 1       1.21870000e+02    5.06012960e+02
    902     931     930 1       1.10210000e+02    5.31033280e+02
    902     931     932 1       1.21870000e+02    5.06012960e+02
    903     902     907 1       1.13070000e+02    5.03000480e+02
    903     902     931 1       1.13070000e+02    5.03000480e+02
    904     903     905 1       1.07730000e+02    2.99574400e+02
    904     903     906 1       1.07730000e+02    2.99574400e+02
    905     903     906 1       1.07730000e+02    2.99574400e+02
    907     902     931 1       1.12520000e+02    5.08021280e+02
    907     908     909 1       1.18410000e+02    5.33794720e+02
    907     908     930 1       1.21100000e+02    5.12958400e+02
    907     928     927 1       1.20020000e+02    5.32790560e+02
    907     928     929 1       1.19880000e+02    3.75723200e+02
    908     907     928 1       1.20730000e+02    5.29945440e+02
    908     909     910 1       1.19820000e+02    3.74300640e+02
    908     909     911 1       1.20730000e+02    5.29945440e+02
    908     930     931 1       1.21100000e+02    5.12958400e+02
    908     930     965 1       1.21100000e+02    5.12958400e+02
    909     908     930 1       1.21100000e+02    5.12958400e+02
    909     911     912 1       1.20640000e+02    5.08439680e+02
    909     911     927 1       1.20020000e+02    5.32790560e+02
    910     909     911 1       1.19880000e+02    3.75723200e+02
    911     912     913 1       1.14530000e+02    3.58485120e+02
    911     912     914 1       1.16810000e+02    4.91368960e+02
    911     912     922 1       1.24830000e+02    4.77729120e+02
    911     927     914 1       1.20640000e+02    5.08439680e+02
    911     927     928 1       1.20020000e+02    5.32790560e+02
    912     911     927 1       1.20640000e+02    5.08439680e+02
    912     914     915 1       1.14760000e+02    3.49364000e+02
    912     914     916 1       1.22490000e+02    4.75804480e+02
    912     914     927 1       1.16810000e+02    4.91368960e+02
    912     922     920 1       9.60300000e+01    5.40070720e+02
    912     922     923 1       1.12000000e+02    3.56811520e+02
    912     922     924 1       1.03090000e+02    5.20322240e+02
    913     912     914 1       1.14760000e+02    3.49364000e+02
    913     912     922 1       1.13690000e+02    3.54217440e+02
    914     912     922 1       1.22490000e+02    4.75804480e+02
    914     916     917 1       1.12000000e+02    3.56811520e+02
    914     916     918 1       9.60300000e+01    5.40070720e+02
    914     916     924 1       1.03090000e+02    5.20322240e+02
    914     927     928 1       1.20640000e+02    5.08439680e+02
    915     914     916 1       1.13690000e+02    3.54217440e+02
    915     914     927 1       1.14530000e+02    3.58485120e+02
    916     914     927 1       1.24830000e+02    4.77729120e+02
    916     918      53 1       1.24830000e+02    4.77729120e+02
    916     918     919 1       1.13690000e+02    3.54217440e+02
    916     918     920 1       1.22490000e+02    4.75804480e+02
    916     924     922 1       1.03830000e+02    5.17477120e+02
    916     924     925 1       1.11170000e+02    3.56895200e+02
    916     924     926 1       1.11170000e+02    3.56895200e+02
    917     916     924 1       1.11170000e+02    3.56895200e+02
    918     916     917 1       1.12000000e+02    3.56811520e+02
    918     920     921 1       1.14760000e+02    3.49364000e+02
    920     918     919 1       1.14760000e+02    3.49364000e+02
    920     922     923 1       1.12000000e+02    3.56811520e+02
    922     920      54 1       1.24830000e+02    4.77729120e+02
    922     920     918 1       1.22490000e+02    4.75804480e+02
    922     920     921 1       1.13690000e+02    3.54217440e+02
    922     924     925 1       1.11170000e+02    3.56895200e+02
    922     924     926 1       1.11170000e+02    3.56895200e+02
    923     922     924 1       1.11170000e+02    3.56895200e+02
    924     916     918 1       1.03090000e+02    5.20322240e+02
    924     922     920 1       1.03090000e+02    5.20322240e+02
    925     924     926 1       1.07220000e+02    3.00494880e+02
    927     928     929 1       1.19880000e+02    3.75723200e+02
    930     931     932 1       1.20730000e+02    5.29945440e+02
    930     965     964 1       1.20730000e+02    5.29945440e+02
    930     965     966 1       1.19820000e+02    3.74300640e+02
    931     930     965 1       1.18410000e+02    5.33794720e+02
    931     932     933 1       1.19880000e+02    3.75723200e+02
    931     932     934 1       1.20020000e+02    5.32790560e+02
    932     934     935 1       1.20640000e+02    5.08439680e+02
    932     934     964 1       1.20020000e+02    5.32790560e+02
    933     932     934 1       1.19880000e+02    3.75723200e+02
    934     935     936 1       1.14530000e+02    3.58485120e+02
    934     935     937 1       1.16810000e+02    4.91368960e+02
    934     935     959 1       1.24830000e+02    4.77729120e+02
    934     964     937 1       1.20640000e+02    5.08439680e+02
    934     964     965 1       1.20020000e+02    5.32790560e+02
    935     934     964 1       1.20640000e+02    5.08439680e+02
    935     937     938 1       1.14760000e+02    3.49364000e+02
    935     937     939 1       1.22490000e+02    4.75804480e+02
    935     937     964 1       1.16810000e+02    4.91368960e+02
    935     959     957 1       9.60300000e+01    5.40070720e+02
    935     959     960 1       1.12000000e+02    3.56811520e+02
    935     959     961 1       1.03090000e+02    5.20322240e+02
    936     935     937 1       1.14760000e+02    3.49364000e+02
    936     935     959 1       1.13690000e+02    3.54217440e+02
    937     935     959 1       1.22490000e+02    4.75804480e+02
    937     939     940 1       1.12000000e+02    3.56811520e+02
    937     939     941 1       9.60300000e+01    5.40070720e+02
    937     939     961 1       1.03090000e+02    5.20322240e+02
    937     964     965 1       1.20640000e+02    5.08439680e+02
    938     937     939 1       1.13690000e+02    3.54217440e+02
    938     937     964 1       1.14530000e+02    3.58485120e+02
    939     937     964 1       1.24830000e+02    4.77729120e+02
    939     941     942 1       1.13690000e+02    3.54217440e+02
    939     941     943 1       1.24830000e+02    4.77729120e+02
    939     941     957 1       1.22490000e+02    4.75804480e+02
    939     961     959 1       1.03830000e+02    5.17477120e+02
    939     961     962 1       1.11170000e+02    3.56895200e+02
    939     961     963 1       1.11170000e+02    3.56895200e+02
    940     939     941 1       1.12000000e+02    3.56811520e+02
    940     939     961 1       1.11170000e+02    3.56895200e+02
    941     939     961 1       1.03090000e+02    5.20322240e+02
    941     943     944 1       1.20640000e+02    5.08439680e+02
    941     943     952 1       1.20640000e+02    5.08439680e+02
    941     957     944 1       1.16810000e+02    4.91368960e+02
    941     957     958 1       1.14760000e+02    3.49364000e+02
    941     957     959 1       1.22490000e+02    4.75804480e+02
    942     941     943 1       1.14530000e+02    3.58485120e+02
    942     941     957 1       1.14760000e+02    3.49364000e+02
    943     941     957 1       1.16810000e+02    4.91368960e+02
    943     944     945 1       1.20020000e+02    5.32790560e+02
    943     944     957 1       1.20640000e+02    5.08439680e+02
    943     952     951 1       1.20020000e+02    5.32790560e+02
    943     952     953 1       1.20830000e+02    5.08272320e+02
    944     943     952 1       1.20020000e+02    5.32790560e+02
    944     945     946 1       1.20830000e+02    5.08272320e+02
    944     945     950 1       1.20020000e+02    5.32790560e+02
    944     957     958 1       1.14530000e+02    3.58485120e+02
    944     957     959 1       1.24830000e+02    4.77729120e+02
    945     944     957 1       1.20640000e+02    5.08439680e+02
    945     946     947 1       1.10630000e+02    3.64928480e+02
    945     946     948 1       1.10630000e+02    3.64928480e+02
    945     946     949 1       1.10630000e+02    3.64928480e+02
    945     950     951 1       1.20020000e+02    5.32790560e+02
    945     950    4023 1       1.20640000e+02    5.08439680e+02
    946     945     950 1       1.20830000e+02    5.08272320e+02
    947     946     948 1       1.07730000e+02    2.99574400e+02
    947     946     949 1       1.07730000e+02    2.99574400e+02
    948     946     949 1       1.07730000e+02    2.99574400e+02
    950     951     952 1       1.20020000e+02    5.32790560e+02
    950     951    4025 1       1.20640000e+02    5.08439680e+02
    950    4023    4024 1       1.14530000e+02    3.58485120e+02
    950    4023    4025 1       1.16810000e+02    4.91368960e+02
    951     950    4023 1       1.20640000e+02    5.08439680e+02
    951    4025    4023 1       1.16810000e+02    4.91368960e+02
    951    4025    4026 1       1.14530000e+02    3.58485120e+02
    952     951    4025 1       1.20640000e+02    5.08439680e+02
    952     953     954 1       1.10630000e+02    3.64928480e+02
    952     953     955 1       1.10630000e+02    3.64928480e+02
    952     953     956 1       1.10630000e+02    3.64928480e+02
    953     952     951 1       1.20830000e+02    5.08272320e+02
    954     953     955 1       1.07730000e+02    2.99574400e+02
    954     953     956 1       1.07730000e+02    2.99574400e+02
    955     953     956 1       1.07730000e+02    2.99574400e+02
    957     959     960 1       1.12000000e+02    3.56811520e+02
    957     959     961 1       1.03090000e+02    5.20322240e+02
    958     957     959 1       1.13690000e+02    3.54217440e+02
    959     961     962 1       1.11170000e+02    3.56895200e+02
    959     961     963 1       1.11170000e+02    3.56895200e+02
    960     959     961 1       1.11170000e+02    3.56895200e+02
    962     961     963 1       1.07220000e+02    3.00494880e+02
    964     965     966 1       1.19880000e+02    3.75723200e+02
    967     971     972 1       1.10280000e+02    5.05761920e+02
    967     971     976 1       1.13070000e+02    5.03000480e+02
    967     971    1000 1       1.13070000e+02    5.03000480e+02
    968     967     969 1       1.07730000e+02    2.99574400e+02
    968     967     970 1       1.07730000e+02    2.99574400e+02
    968     967     971 1       1.10530000e+02    3.60326080e+02
    969     967     970 1       1.07730000e+02    2.99574400e+02
    969     967     971 1       1.10530000e+02    3.60326080e+02
    970     967     971 1       1.10530000e+02    3.60326080e+02
    971     972     973 1       1.10530000e+02    3.60326080e+02
    971     972     974 1       1.10530000e+02    3.60326080e+02
    971     972     975 1       1.10530000e+02    3.60326080e+02
    971     976     977 1       1.10210000e+02    5.31033280e+02
    971     976     997 1       1.21870000e+02    5.06012960e+02
    971    1000     999 1       1.10210000e+02    5.31033280e+02
    971    1000    1001 1       1.21870000e+02    5.06012960e+02
    972     971     976 1       1.13070000e+02    5.03000480e+02
    972     971    1000 1       1.13070000e+02    5.03000480e+02
    973     972     974 1       1.07730000e+02    2.99574400e+02
    973     972     975 1       1.07730000e+02    2.99574400e+02
    974     972     975 1       1.07730000e+02    2.99574400e+02
    976     971    1000 1       1.12520000e+02    5.08021280e+02
    976     977     978 1       1.18410000e+02    5.33794720e+02
    976     977     999 1       1.21100000e+02    5.12958400e+02
    976     997     996 1       1.20020000e+02    5.32790560e+02
    976     997     998 1       1.19880000e+02    3.75723200e+02
    977     976     997 1       1.20730000e+02    5.29945440e+02
    977     978     979 1       1.19820000e+02    3.74300640e+02
    977     978     980 1       1.20730000e+02    5.29945440e+02
    977     999    1000 1       1.21100000e+02    5.12958400e+02
    977     999    1034 1       1.21100000e+02    5.12958400e+02
    978     977     999 1       1.21100000e+02    5.12958400e+02
    978     980     981 1       1.20640000e+02    5.08439680e+02
    978     980     996 1       1.20020000e+02    5.32790560e+02
    979     978     980 1       1.19880000e+02    3.75723200e+02
    980     981     982 1       1.14530000e+02    3.58485120e+02
    980     981     983 1       1.16810000e+02    4.91368960e+02
    980     981     991 1       1.24830000e+02    4.77729120e+02
    980     996     983 1       1.20640000e+02    5.08439680e+02
    980     996     997 1       1.20020000e+02    5.32790560e+02
    981     980     996 1       1.20640000e+02    5.08439680e+02
    981     983     984 1       1.14760000e+02    3.49364000e+02
    981     983     985 1       1.22490000e+02    4.75804480e+02
    981     983     996 1       1.16810000e+02    4.91368960e+02
    981     991     989 1       9.60300000e+01    5.40070720e+02
    981     991     992 1       1.12000000e+02    3.56811520e+02
    981     991     993 1       1.03090000e+02    5.20322240e+02
    982     981     983 1       1.14760000e+02    3.49364000e+02
    982     981     991 1       1.13690000e+02    3.54217440e+02
    983     981     991 1       1.22490000e+02    4.75804480e+02
    983     985     986 1       1.12000000e+02    3.56811520e+02
    983     985     987 1       9.60300000e+01    5.40070720e+02
    983     985     993 1       1.03090000e+02    5.20322240e+02
    983     996     997 1       1.20640000e+02    5.08439680e+02
    984     983     985 1       1.13690000e+02    3.54217440e+02
    984     983     996 1       1.14530000e+02    3.58485120e+02
    985     983     996 1       1.24830000e+02    4.77729120e+02
    985     987     988 1       1.13690000e+02    3.54217440e+02
    985     987     989 1       1.22490000e+02    4.75804480e+02
    985     987    5159 1       1.24830000e+02    4.77729120e+02
    985     993     991 1       1.03830000e+02    5.17477120e+02
    985     993     994 1       1.11170000e+02    3.56895200e+02
    985     993     995 1       1.11170000e+02    3.56895200e+02
    986     985     993 1       1.11170000e+02    3.56895200e+02
    987     985     986 1       1.12000000e+02    3.56811520e+02
    987     989     990 1       1.14760000e+02    3.49364000e+02
    989     987     988 1       1.14760000e+02    3.49364000e+02
    989     991     992 1       1.12000000e+02    3.56811520e+02
    991     989     987 1       1.22490000e+02    4.75804480e+02
    991     989     990 1       1.13690000e+02    3.54217440e+02
    991     989    5160 1       1.24830000e+02    4.77729120e+02
    991     993     994 1       1.11170000e+02    3.56895200e+02
    991     993     995 1       1.11170000e+02    3.56895200e+02
    992     991     993 1       1.11170000e+02    3.56895200e+02
    993     985     987 1       1.03090000e+02    5.20322240e+02
    993     991     989 1       1.03090000e+02    5.20322240e+02
    994     993     995 1       1.07220000e+02    3.00494880e+02
    996     997     998 1       1.19880000e+02    3.75723200e+02
    999    1000    1001 1       1.20730000e+02    5.29945440e+02
    999    1034    1033 1       1.20730000e+02    5.29945440e+02
    999    1034    1035 1       1.19820000e+02    3.74300640e+02
   1000     999    1034 1       1.18410000e+02    5.33794720e+02
   1000    1001    1002 1       1.19880000e+02    3.75723200e+02
   1000    1001    1003 1       1.20020000e+02    5.32790560e+02
   1001    1003    1004 1       1.20640000e+02    5.08439680e+02
   1001    1003    1033 1       1.20020000e+02    5.32790560e+02
   1002    1001    1003 1       1.19880000e+02    3.75723200e+02
   1003    1004    1005 1       1.14530000e+02    3.58485120e+02
   1003    1004    1006 1       1.16810000e+02    4.91368960e+02
   1003    1004    1028 1       1.24830000e+02    4.77729120e+02
   1003    1033    1006 1       1.20640000e+02    5.08439680e+02
   1003    1033    1034 1       1.20020000e+02    5.32790560e+02
   1004    1003    1033 1       1.20640000e+02    5.08439680e+02
   1004    1006    1007 1       1.14760000e+02    3.49364000e+02
   1004    1006    1008 1       1.22490000e+02    4.75804480e+02
   1004    1006    1033 1       1.16810000e+02    4.91368960e+02
   1004    1028    1026 1       9.60300000e+01    5.40070720e+02
   1004    1028    1029 1       1.12000000e+02    3.56811520e+02
   1004    1028    1030 1       1.03090000e+02    5.20322240e+02
   1005    1004    1006 1       1.14760000e+02    3.49364000e+02
   1005    1004    1028 1       1.13690000e+02    3.54217440e+02
   1006    1004    1028 1       1.22490000e+02    4.75804480e+02
   1006    1008    1009 1       1.12000000e+02    3.56811520e+02
   1006    1008    1010 1       9.60300000e+01    5.40070720e+02
   1006    1008    1030 1       1.03090000e+02    5.20322240e+02
   1006    1033    1034 1       1.20640000e+02    5.08439680e+02
   1007    1006    1008 1       1.13690000e+02    3.54217440e+02
   1007    1006    1033 1       1.14530000e+02    3.58485120e+02
   1008    1006    1033 1       1.24830000e+02    4.77729120e+02
   1008    1010    1011 1       1.13690000e+02    3.54217440e+02
   1008    1010    1012 1       1.24830000e+02    4.77729120e+02
   1008    1010    1026 1       1.22490000e+02    4.75804480e+02
   1008    1030    1028 1       1.03830000e+02    5.17477120e+02
   1008    1030    1031 1       1.11170000e+02    3.56895200e+02
   1008    1030    1032 1       1.11170000e+02    3.56895200e+02
   1009    1008    1010 1       1.12000000e+02    3.56811520e+02
   1009    1008    1030 1       1.11170000e+02    3.56895200e+02
   1010    1008    1030 1       1.03090000e+02    5.20322240e+02
   1010    1012    1013 1       1.20640000e+02    5.08439680e+02
   1010    1012    1021 1       1.20640000e+02    5.08439680e+02
   1010    1026    1013 1       1.16810000e+02    4.91368960e+02
   1010    1026    1027 1       1.14760000e+02    3.49364000e+02
   1010    1026    1028 1       1.22490000e+02    4.75804480e+02
   1011    1010    1012 1       1.14530000e+02    3.58485120e+02
   1011    1010    1026 1       1.14760000e+02    3.49364000e+02
   1012    1010    1026 1       1.16810000e+02    4.91368960e+02
   1012    1013    1014 1       1.20020000e+02    5.32790560e+02
   1012    1013    1026 1       1.20640000e+02    5.08439680e+02
   1012    1021    1020 1       1.20020000e+02    5.32790560e+02
   1012    1021    1022 1       1.20830000e+02    5.08272320e+02
   1013    1012    1021 1       1.20020000e+02    5.32790560e+02
   1013    1014    1015 1       1.20830000e+02    5.08272320e+02
   1013    1014    1019 1       1.20020000e+02    5.32790560e+02
   1013    1026    1027 1       1.14530000e+02    3.58485120e+02
   1013    1026    1028 1       1.24830000e+02    4.77729120e+02
   1014    1013    1026 1       1.20640000e+02    5.08439680e+02
   1014    1015    1016 1       1.10630000e+02    3.64928480e+02
   1014    1015    1017 1       1.10630000e+02    3.64928480e+02
   1014    1015    1018 1       1.10630000e+02    3.64928480e+02
   1014    1019    1020 1       1.20020000e+02    5.32790560e+02
   1014    1019    5334 1       1.20640000e+02    5.08439680e+02
   1015    1014    1019 1       1.20830000e+02    5.08272320e+02
   1016    1015    1017 1       1.07730000e+02    2.99574400e+02
   1016    1015    1018 1       1.07730000e+02    2.99574400e+02
   1017    1015    1018 1       1.07730000e+02    2.99574400e+02
   1019    1020    1021 1       1.20020000e+02    5.32790560e+02
   1019    1020    5336 1       1.20640000e+02    5.08439680e+02
   1019    5334    5335 1       1.14530000e+02    3.58485120e+02
   1019    5334    5336 1       1.16810000e+02    4.91368960e+02
   1020    1019    5334 1       1.20640000e+02    5.08439680e+02
   1020    5336    5334 1       1.16810000e+02    4.91368960e+02
   1020    5336    5337 1       1.14530000e+02    3.58485120e+02
   1021    1020    5336 1       1.20640000e+02    5.08439680e+02
   1021    1022    1023 1       1.10630000e+02    3.64928480e+02
   1021    1022    1024 1       1.10630000e+02    3.64928480e+02
   1021    1022    1025 1       1.10630000e+02    3.64928480e+02
   1022    1021    1020 1       1.20830000e+02    5.08272320e+02
   1023    1022    1024 1       1.07730000e+02    2.99574400e+02
   1023    1022    1025 1       1.07730000e+02    2.99574400e+02
   1024    1022    1025 1       1.07730000e+02    2.99574400e+02
   1026    1028    1029 1       1.12000000e+02    3.56811520e+02
   1026    1028    1030 1       1.03090000e+02    5.20322240e+02
   1027    1026    1028 1       1.13690000e+02    3.54217440e+02
   1028    1030    1031 1       1.11170000e+02    3.56895200e+02
   1028    1030    1032 1       1.11170000e+02    3.56895200e+02
   1029    1028    1030 1       1.11170000e+02    3.56895200e+02
   1031    1030    1032 1       1.07220000e+02    3.00494880e+02
   1033    1034    1035 1       1.19880000e+02    3.75723200e+02
   1036    1040    1041 1       1.10280000e+02    5.05761920e+02
   1036    1040    1045 1       1.13070000e+02    5.03000480e+02
   1036    1040    1069 1       1.13070000e+02    5.03000480e+02
   1037    1036    1038 1       1.07730000e+02    2.99574400e+02
   1037    1036    1039 1       1.07730000e+02    2.99574400e+02
   1037    1036    1040 1       1.10530000e+02    3.60326080e+02
   1038    1036    1039 1       1.07730000e+02    2.99574400e+02
   1038    1036    1040 1       1.10530000e+02    3.60326080e+02
   1039    1036    1040 1       1.10530000e+02    3.60326080e+02
   1040    1041    1042 1       1.10530000e+02    3.60326080e+02
   1040    1041    1043 1       1.10530000e+02    3.60326080e+02
   1040    1041    1044 1       1.10530000e+02    3.60326080e+02
   1040    1045    1046 1       1.10210000e+02    5.31033280e+02
   1040    1045    1066 1       1.21870000e+02    5.06012960e+02
   1040    1069    1068 1       1.10210000e+02    5.31033280e+02
   1040    1069    1070 1       1.21870000e+02    5.06012960e+02
   1041    1040    1045 1       1.13070000e+02    5.03000480e+02
   1041    1040    1069 1       1.13070000e+02    5.03000480e+02
   1042    1041    1043 1       1.07730000e+02    2.99574400e+02
   1042    1041    1044 1       1.07730000e+02    2.99574400e+02
   1043    1041    1044 1       1.07730000e+02    2.99574400e+02
   1045    1040    1069 1       1.12520000e+02    5.08021280e+02
   1045    1046    1047 1       1.18410000e+02    5.33794720e+02
   1045    1046    1068 1       1.21100000e+02    5.12958400e+02
   1045    1066    1065 1       1.20020000e+02    5.32790560e+02
   1045    1066    1067 1       1.19880000e+02    3.75723200e+02
   1046    1045    1066 1       1.20730000e+02    5.29945440e+02
   1046    1047    1048 1       1.19820000e+02    3.74300640e+02
   1046    1047    1049 1       1.20730000e+02    5.29945440e+02
   1046    1068    1069 1       1.21100000e+02    5.12958400e+02
   1046    1068    1103 1       1.21100000e+02    5.12958400e+02
   1047    1046    1068 1       1.21100000e+02    5.12958400e+02
   1047    1049    1050 1       1.20640000e+02    5.08439680e+02
   1047    1049    1065 1       1.20020000e+02    5.32790560e+02
   1048    1047    1049 1       1.19880000e+02    3.75723200e+02
   1049    1050    1051 1       1.14530000e+02    3.58485120e+02
   1049    1050    1052 1       1.16810000e+02    4.91368960e+02
   1049    1050    1060 1       1.24830000e+02    4.77729120e+02
   1049    1065    1052 1       1.20640000e+02    5.08439680e+02
   1049    1065    1066 1       1.20020000e+02    5.32790560e+02
   1050    1049    1065 1       1.20640000e+02    5.08439680e+02
   1050    1052    1053 1       1.14760000e+02    3.49364000e+02
   1050    1052    1054 1       1.22490000e+02    4.75804480e+02
   1050    1052    1065 1       1.16810000e+02    4.91368960e+02
   1050    1060    1058 1       9.60300000e+01    5.40070720e+02
   1050    1060    1061 1       1.12000000e+02    3.56811520e+02
   1050    1060    1062 1       1.03090000e+02    5.20322240e+02
   1051    1050    1052 1       1.14760000e+02    3.49364000e+02
   1051    1050    1060 1       1.13690000e+02    3.54217440e+02
   1052    1050    1060 1       1.22490000e+02    4.75804480e+02
   1052    1054    1055 1       1.12000000e+02    3.56811520e+02
   1052    1054    1056 1       9.60300000e+01    5.40070720e+02
   1052    1054    1062 1       1.03090000e+02    5.20322240e+02
   1052    1065    1066 1       1.20640000e+02    5.08439680e+02
   1053    1052    1054 1       1.13690000e+02    3.54217440e+02
   1053    1052    1065 1       1.14530000e+02    3.58485120e+02
   1054    1052    1065 1       1.24830000e+02    4.77729120e+02
   1054    1056    1057 1       1.13690000e+02    3.54217440e+02
   1054    1056    1058 1       1.22490000e+02    4.75804480e+02
   1054    1056    2883 1       1.24830000e+02    4.77729120e+02
   1054    1062    1060 1       1.03830000e+02    5.17477120e+02
   1054    1062    1063 1       1.11170000e+02    3.56895200e+02
   1054    1062    1064 1       1.11170000e+02    3.56895200e+02
   1055    1054    1062 1       1.11170000e+02    3.56895200e+02
   1056    1054    1055 1       1.12000000e+02    3.56811520e+02
   1056    1058    1059 1       1.14760000e+02    3.49364000e+02
   1058    1056    1057 1       1.14760000e+02    3.49364000e+02
   1058    1060    1061 1       1.12000000e+02    3.56811520e+02
   1060    1058    1056 1       1.22490000e+02    4.75804480e+02
   1060    1058    1059 1       1.13690000e+02    3.54217440e+02
   1060    1058    2882 1       1.24830000e+02    4.77729120e+02
   1060    1062    1063 1       1.11170000e+02    3.56895200e+02
   1060    1062    1064 1       1.11170000e+02    3.56895200e+02
   1061    1060    1062 1       1.11170000e+02    3.56895200e+02
   1062    1054    1056 1       1.03090000e+02    5.20322240e+02
   1062    1060    1058 1       1.03090000e+02    5.20322240e+02
   1063    1062    1064 1       1.07220000e+02    3.00494880e+02
   1065    1066    1067 1       1.19880000e+02    3.75723200e+02
   1068    1069    1070 1       1.20730000e+02    5.29945440e+02
   1068    1103    1102 1       1.20730000e+02    5.29945440e+02
   1068    1103    1104 1       1.19820000e+02    3.74300640e+02
   1069    1068    1103 1       1.18410000e+02    5.33794720e+02
   1069    1070    1071 1       1.19880000e+02    3.75723200e+02
   1069    1070    1072 1       1.20020000e+02    5.32790560e+02
   1070    1072    1073 1       1.20640000e+02    5.08439680e+02
   1070    1072    1102 1       1.20020000e+02    5.32790560e+02
   1071    1070    1072 1       1.19880000e+02    3.75723200e+02
   1072    1073    1074 1       1.14530000e+02    3.58485120e+02
   1072    1073    1075 1       1.16810000e+02    4.91368960e+02
   1072    1073    1097 1       1.24830000e+02    4.77729120e+02
   1072    1102    1075 1       1.20640000e+02    5.08439680e+02
   1072    1102    1103 1       1.20020000e+02    5.32790560e+02
   1073    1072    1102 1       1.20640000e+02    5.08439680e+02
   1073    1075    1076 1       1.14760000e+02    3.49364000e+02
   1073    1075    1077 1       1.22490000e+02    4.75804480e+02
   1073    1075    1102 1       1.16810000e+02    4.91368960e+02
   1073    1097    1095 1       9.60300000e+01    5.40070720e+02
   1073    1097    1098 1       1.12000000e+02    3.56811520e+02
   1073    1097    1099 1       1.03090000e+02    5.20322240e+02
   1074    1073    1075 1       1.14760000e+02    3.49364000e+02
   1074    1073    1097 1       1.13690000e+02    3.54217440e+02
   1075    1073    1097 1       1.22490000e+02    4.75804480e+02
   1075    1077    1078 1       1.12000000e+02    3.56811520e+02
   1075    1077    1079 1       9.60300000e+01    5.40070720e+02
   1075    1077    1099 1       1.03090000e+02    5.20322240e+02
   1075    1102    1103 1       1.20640000e+02    5.08439680e+02
   1076    1075    1077 1       1.13690000e+02    3.54217440e+02
   1076    1075    1102 1       1.14530000e+02    3.58485120e+02
   1077    1075    1102 1       1.24830000e+02    4.77729120e+02
   1077    1079    1080 1       1.13690000e+02    3.54217440e+02
   1077    1079    1081 1       1.24830000e+02    4.77729120e+02
   1077    1079    1095 1       1.22490000e+02    4.75804480e+02
   1077    1099    1097 1       1.03830000e+02    5.17477120e+02
   1077    1099    1100 1       1.11170000e+02    3.56895200e+02
   1077    1099    1101 1       1.11170000e+02    3.56895200e+02
   1078    1077    1079 1       1.12000000e+02    3.56811520e+02
   1078    1077    1099 1       1.11170000e+02    3.56895200e+02
   1079    1077    1099 1       1.03090000e+02    5.20322240e+02
   1079    1081    1082 1       1.20640000e+02    5.08439680e+02
   1079    1081    1090 1       1.20640000e+02    5.08439680e+02
   1079    1095    1082 1       1.16810000e+02    4.91368960e+02
   1079    1095    1096 1       1.14760000e+02    3.49364000e+02
   1079    1095    1097 1       1.22490000e+02    4.75804480e+02
   1080    1079    1081 1       1.14530000e+02    3.58485120e+02
   1080    1079    1095 1       1.14760000e+02    3.49364000e+02
   1081    1079    1095 1       1.16810000e+02    4.91368960e+02
   1081    1082    1083 1       1.20020000e+02    5.32790560e+02
   1081    1082    1095 1       1.20640000e+02    5.08439680e+02
   1081    1090    1089 1       1.20020000e+02    5.32790560e+02
   1081    1090    1091 1       1.20830000e+02    5.08272320e+02
   1082    1081    1090 1       1.20020000e+02    5.32790560e+02
   1082    1083    1084 1       1.20830000e+02    5.08272320e+02
   1082    1083    1088 1       1.20020000e+02    5.32790560e+02
   1082    1095    1096 1       1.14530000e+02    3.58485120e+02
   1082    1095    1097 1       1.24830000e+02    4.77729120e+02
   1083    1082    1095 1       1.20640000e+02    5.08439680e+02
   1083    1084    1085 1       1.10630000e+02    3.64928480e+02
   1083    1084    1086 1       1.10630000e+02    3.64928480e+02
   1083    1084    1087 1       1.10630000e+02    3.64928480e+02
   1083    1088    1089 1       1.20020000e+02    5.32790560e+02
   1083    1088    4161 1       1.20640000e+02    5.08439680e+02
   1084    1083    1088 1       1.20830000e+02    5.08272320e+02
   1085    1084    1086 1       1.07730000e+02    2.99574400e+02
   1085    1084    1087 1       1.07730000e+02    2.99574400e+02
   1086    1084    1087 1       1.07730000e+02    2.99574400e+02
   1088    1089    1090 1       1.20020000e+02    5.32790560e+02
   1088    1089    4163 1       1.20640000e+02    5.08439680e+02
   1088    4161    4162 1       1.14530000e+02    3.58485120e+02
   1088    4161    4163 1       1.16810000e+02    4.91368960e+02
   1089    1088    4161 1       1.20640000e+02    5.08439680e+02
   1089    4163    4161 1       1.16810000e+02    4.91368960e+02
   1089    4163    4164 1       1.14530000e+02    3.58485120e+02
   1090    1089    4163 1       1.20640000e+02    5.08439680e+02
   1090    1091    1092 1       1.10630000e+02    3.64928480e+02
   1090    1091    1093 1       1.10630000e+02    3.64928480e+02
   1090    1091    1094 1       1.10630000e+02    3.64928480e+02
   1091    1090    1089 1       1.20830000e+02    5.08272320e+02
   1092    1091    1093 1       1.07730000e+02    2.99574400e+02
   1092    1091    1094 1       1.07730000e+02    2.99574400e+02
   1093    1091    1094 1       1.07730000e+02    2.99574400e+02
   1095    1097    1098 1       1.12000000e+02    3.56811520e+02
   1095    1097    1099 1       1.03090000e+02    5.20322240e+02
   1096    1095    1097 1       1.13690000e+02    3.54217440e+02
   1097    1099    1100 1       1.11170000e+02    3.56895200e+02
   1097    1099    1101 1       1.11170000e+02    3.56895200e+02
   1098    1097    1099 1       1.11170000e+02    3.56895200e+02
   1100    1099    1101 1       1.07220000e+02    3.00494880e+02
   1102    1103    1104 1       1.19880000e+02    3.75723200e+02
   1105    1109    1110 1       1.10280000e+02    5.05761920e+02
   1105    1109    1114 1       1.13070000e+02    5.03000480e+02
   1105    1109    1138 1       1.13070000e+02    5.03000480e+02
   1106    1105    1107 1       1.07730000e+02    2.99574400e+02
   1106    1105    1108 1       1.07730000e+02    2.99574400e+02
   1106    1105    1109 1       1.10530000e+02    3.60326080e+02
   1107    1105    1108 1       1.07730000e+02    2.99574400e+02
   1107    1105    1109 1       1.10530000e+02    3.60326080e+02
   1108    1105    1109 1       1.10530000e+02    3.60326080e+02
   1109    1110    1111 1       1.10530000e+02    3.60326080e+02
   1109    1110    1112 1       1.10530000e+02    3.60326080e+02
   1109    1110    1113 1       1.10530000e+02    3.60326080e+02
   1109    1114    1115 1       1.10210000e+02    5.31033280e+02
   1109    1114    1135 1       1.21870000e+02    5.06012960e+02
   1109    1138    1137 1       1.10210000e+02    5.31033280e+02
   1109    1138    1139 1       1.21870000e+02    5.06012960e+02
   1110    1109    1114 1       1.13070000e+02    5.03000480e+02
   1110    1109    1138 1       1.13070000e+02    5.03000480e+02
   1111    1110    1112 1       1.07730000e+02    2.99574400e+02
   1111    1110    1113 1       1.07730000e+02    2.99574400e+02
   1112    1110    1113 1       1.07730000e+02    2.99574400e+02
   1114    1109    1138 1       1.12520000e+02    5.08021280e+02
   1114    1115    1116 1       1.18410000e+02    5.33794720e+02
   1114    1115    1137 1       1.21100000e+02    5.12958400e+02
   1114    1135    1134 1       1.20020000e+02    5.32790560e+02
   1114    1135    1136 1       1.19880000e+02    3.75723200e+02
   1115    1114    1135 1       1.20730000e+02    5.29945440e+02
   1115    1116    1117 1       1.19820000e+02    3.74300640e+02
   1115    1116    1118 1       1.20730000e+02    5.29945440e+02
   1115    1137    1138 1       1.21100000e+02    5.12958400e+02
   1115    1137    1172 1       1.21100000e+02    5.12958400e+02
   1116    1115    1137 1       1.21100000e+02    5.12958400e+02
   1116    1118    1119 1       1.20640000e+02    5.08439680e+02
   1116    1118    1134 1       1.20020000e+02    5.32790560e+02
   1117    1116    1118 1       1.19880000e+02    3.75723200e+02
   1118    1119    1120 1       1.14530000e+02    3.58485120e+02
   1118    1119    1121 1       1.16810000e+02    4.91368960e+02
   1118    1119    1129 1       1.24830000e+02    4.77729120e+02
   1118    1134    1121 1       1.20640000e+02    5.08439680e+02
   1118    1134    1135 1       1.20020000e+02    5.32790560e+02
   1119    1118    1134 1       1.20640000e+02    5.08439680e+02
   1119    1121    1122 1       1.14760000e+02    3.49364000e+02
   1119    1121    1123 1       1.22490000e+02    4.75804480e+02
   1119    1121    1134 1       1.16810000e+02    4.91368960e+02
   1119    1129    1127 1       9.60300000e+01    5.40070720e+02
   1119    1129    1130 1       1.12000000e+02    3.56811520e+02
   1119    1129    1131 1       1.03090000e+02    5.20322240e+02
   1120    1119    1121 1       1.14760000e+02    3.49364000e+02
   1120    1119    1129 1       1.13690000e+02    3.54217440e+02
   1121    1119    1129 1       1.22490000e+02    4.75804480e+02
   1121    1123    1124 1       1.12000000e+02    3.56811520e+02
   1121    1123    1125 1       9.60300000e+01    5.40070720e+02
   1121    1123    1131 1       1.03090000e+02    5.20322240e+02
   1121    1134    1135 1       1.20640000e+02    5.08439680e+02
   1122    1121    1123 1       1.13690000e+02    3.54217440e+02
   1122    1121    1134 1       1.14530000e+02    3.58485120e+02
   1123    1121    1134 1       1.24830000e+02    4.77729120e+02
   1123    1125    1126 1       1.13690000e+02    3.54217440e+02
   1123    1125    1127 1       1.22490000e+02    4.75804480e+02
   1123    1125    4883 1       1.24830000e+02    4.77729120e+02
   1123    1131    1129 1       1.03830000e+02    5.17477120e+02
   1123    1131    1132 1       1.11170000e+02    3.56895200e+02
   1123    1131    1133 1       1.11170000e+02    3.56895200e+02
   1124    1123    1131 1       1.11170000e+02    3.56895200e+02
   1125    1123    1124 1       1.12000000e+02    3.56811520e+02
   1125    1127    1128 1       1.14760000e+02    3.49364000e+02
   1127    1125    1126 1       1.14760000e+02    3.49364000e+02
   1127    1129    1130 1       1.12000000e+02    3.56811520e+02
   1129    1127    1125 1       1.22490000e+02    4.75804480e+02
   1129    1127    1128 1       1.13690000e+02    3.54217440e+02
   1129    1127    4884 1       1.24830000e+02    4.77729120e+02
   1129    1131    1132 1       1.11170000e+02    3.56895200e+02
   1129    1131    1133 1       1.11170000e+02    3.56895200e+02
   1130    1129    1131 1       1.11170000e+02    3.56895200e+02
   1131    1123    1125 1       1.03090000e+02    5.20322240e+02
   1131    1129    1127 1       1.03090000e+02    5.20322240e+02
   1132    1131    1133 1       1.07220000e+02    3.00494880e+02
   1134    1135    1136 1       1.19880000e+02    3.75723200e+02
   1137    1138    1139 1       1.20730000e+02    5.29945440e+02
   1137    1172    1171 1       1.20730000e+02    5.29945440e+02
   1137    1172    1173 1       1.19820000e+02    3.74300640e+02
   1138    1137    1172 1       1.18410000e+02    5.33794720e+02
   1138    1139    1140 1       1.19880000e+02    3.75723200e+02
   1138    1139    1141 1       1.20020000e+02    5.32790560e+02
   1139    1141    1142 1       1.20640000e+02    5.08439680e+02
   1139    1141    1171 1       1.20020000e+02    5.32790560e+02
   1140    1139    1141 1       1.19880000e+02    3.75723200e+02
   1141    1142    1143 1       1.14530000e+02    3.58485120e+02
   1141    1142    1144 1       1.16810000e+02    4.91368960e+02
   1141    1142    1166 1       1.24830000e+02    4.77729120e+02
   1141    1171    1144 1       1.20640000e+02    5.08439680e+02
   1141    1171    1172 1       1.20020000e+02    5.32790560e+02
   1142    1141    1171 1       1.20640000e+02    5.08439680e+02
   1142    1144    1145 1       1.14760000e+02    3.49364000e+02
   1142    1144    1146 1       1.22490000e+02    4.75804480e+02
   1142    1144    1171 1       1.16810000e+02    4.91368960e+02
   1142    1166    1164 1       9.60300000e+01    5.40070720e+02
   1142    1166    1167 1       1.12000000e+02    3.56811520e+02
   1142    1166    1168 1       1.03090000e+02    5.20322240e+02
   1143    1142    1144 1       1.14760000e+02    3.49364000e+02
   1143    1142    1166 1       1.13690000e+02    3.54217440e+02
   1144    1142    1166 1       1.22490000e+02    4.75804480e+02
   1144    1146    1147 1       1.12000000e+02    3.56811520e+02
   1144    1146    1148 1       9.60300000e+01    5.40070720e+02
   1144    1146    1168 1       1.03090000e+02    5.20322240e+02
   1144    1171    1172 1       1.20640000e+02    5.08439680e+02
   1145    1144    1146 1       1.13690000e+02    3.54217440e+02
   1145    1144    1171 1       1.14530000e+02    3.58485120e+02
   1146    1144    1171 1       1.24830000e+02    4.77729120e+02
   1146    1148    1149 1       1.13690000e+02    3.54217440e+02
   1146    1148    1150 1       1.24830000e+02    4.77729120e+02
   1146    1148    1164 1       1.22490000e+02    4.75804480e+02
   1146    1168    1166 1       1.03830000e+02    5.17477120e+02
   1146    1168    1169 1       1.11170000e+02    3.56895200e+02
   1146    1168    1170 1       1.11170000e+02    3.56895200e+02
   1147    1146    1148 1       1.12000000e+02    3.56811520e+02
   1147    1146    1168 1       1.11170000e+02    3.56895200e+02
   1148    1146    1168 1       1.03090000e+02    5.20322240e+02
   1148    1150    1151 1       1.20640000e+02    5.08439680e+02
   1148    1150    1159 1       1.20640000e+02    5.08439680e+02
   1148    1164    1151 1       1.16810000e+02    4.91368960e+02
   1148    1164    1165 1       1.14760000e+02    3.49364000e+02
   1148    1164    1166 1       1.22490000e+02    4.75804480e+02
   1149    1148    1150 1       1.14530000e+02    3.58485120e+02
   1149    1148    1164 1       1.14760000e+02    3.49364000e+02
   1150    1148    1164 1       1.16810000e+02    4.91368960e+02
   1150    1151    1152 1       1.20020000e+02    5.32790560e+02
   1150    1151    1164 1       1.20640000e+02    5.08439680e+02
   1150    1159    1158 1       1.20020000e+02    5.32790560e+02
   1150    1159    1160 1       1.20830000e+02    5.08272320e+02
   1151    1150    1159 1       1.20020000e+02    5.32790560e+02
   1151    1152    1153 1       1.20830000e+02    5.08272320e+02
   1151    1152    1157 1       1.20020000e+02    5.32790560e+02
   1151    1164    1165 1       1.14530000e+02    3.58485120e+02
   1151    1164    1166 1       1.24830000e+02    4.77729120e+02
   1152    1151    1164 1       1.20640000e+02    5.08439680e+02
   1152    1153    1154 1       1.10630000e+02    3.64928480e+02
   1152    1153    1155 1       1.10630000e+02    3.64928480e+02
   1152    1153    1156 1       1.10630000e+02    3.64928480e+02
   1152    1157    1158 1       1.20020000e+02    5.32790560e+02
   1152    1157    2091 1       1.20640000e+02    5.08439680e+02
   1153    1152    1157 1       1.20830000e+02    5.08272320e+02
   1154    1153    1155 1       1.07730000e+02    2.99574400e+02
   1154    1153    1156 1       1.07730000e+02    2.99574400e+02
   1155    1153    1156 1       1.07730000e+02    2.99574400e+02
   1157    1158    1159 1       1.20020000e+02    5.32790560e+02
   1157    1158    2093 1       1.20640000e+02    5.08439680e+02
   1157    2091    2092 1       1.14530000e+02    3.58485120e+02
   1157    2091    2093 1       1.16810000e+02    4.91368960e+02
   1158    1157    2091 1       1.20640000e+02    5.08439680e+02
   1158    2093    2091 1       1.16810000e+02    4.91368960e+02
   1158    2093    2094 1       1.14530000e+02    3.58485120e+02
   1159    1158    2093 1       1.20640000e+02    5.08439680e+02
   1159    1160    1161 1       1.10630000e+02    3.64928480e+02
   1159    1160    1162 1       1.10630000e+02    3.64928480e+02
   1159    1160    1163 1       1.10630000e+02    3.64928480e+02
   1160    1159    1158 1       1.20830000e+02    5.08272320e+02
   1161    1160    1162 1       1.07730000e+02    2.99574400e+02
   1161    1160    1163 1       1.07730000e+02    2.99574400e+02
   1162    1160    1163 1       1.07730000e+02    2.99574400e+02
   1164    1166    1167 1       1.12000000e+02    3.56811520e+02
   1164    1166    1168 1       1.03090000e+02    5.20322240e+02
   1165    1164    1166 1       1.13690000e+02    3.54217440e+02
   1166    1168    1169 1       1.11170000e+02    3.56895200e+02
   1166    1168    1170 1       1.11170000e+02    3.56895200e+02
   1167    1166    1168 1       1.11170000e+02    3.56895200e+02
   1169    1168    1170 1       1.07220000e+02    3.00494880e+02
   1171    1172    1173 1       1.19880000e+02    3.75723200e+02
   1174    1178    1179 1       1.10280000e+02    5.05761920e+02
   1174    1178    1183 1       1.13070000e+02    5.03000480e+02
   1174    1178    1207 1       1.13070000e+02    5.03000480e+02
   1175    1174    1176 1       1.07730000e+02    2.99574400e+02
   1175    1174    1177 1       1.07730000e+02    2.99574400e+02
   1175    1174    1178 1       1.10530000e+02    3.60326080e+02
   1176    1174    1177 1       1.07730000e+02    2.99574400e+02
   1176    1174    1178 1       1.10530000e+02    3.60326080e+02
   1177    1174    1178 1       1.10530000e+02    3.60326080e+02
   1178    1179    1180 1       1.10530000e+02    3.60326080e+02
   1178    1179    1181 1       1.10530000e+02    3.60326080e+02
   1178    1179    1182 1       1.10530000e+02    3.60326080e+02
   1178    1183    1184 1       1.10210000e+02    5.31033280e+02
   1178    1183    1204 1       1.21870000e+02    5.06012960e+02
   1178    1207    1206 1       1.10210000e+02    5.31033280e+02
   1178    1207    1208 1       1.21870000e+02    5.06012960e+02
   1179    1178    1183 1       1.13070000e+02    5.03000480e+02
   1179    1178    1207 1       1.13070000e+02    5.03000480e+02
   1180    1179    1181 1       1.07730000e+02    2.99574400e+02
   1180    1179    1182 1       1.07730000e+02    2.99574400e+02
   1181    1179    1182 1       1.07730000e+02    2.99574400e+02
   1183    1178    1207 1       1.12520000e+02    5.08021280e+02
   1183    1184    1185 1       1.18410000e+02    5.33794720e+02
   1183    1184    1206 1       1.21100000e+02    5.12958400e+02
   1183    1204    1203 1       1.20020000e+02    5.32790560e+02
   1183    1204    1205 1       1.19880000e+02    3.75723200e+02
   1184    1183    1204 1       1.20730000e+02    5.29945440e+02
   1184    1185    1186 1       1.19820000e+02    3.74300640e+02
   1184    1185    1187 1       1.20730000e+02    5.29945440e+02
   1184    1206    1207 1       1.21100000e+02    5.12958400e+02
   1184    1206    1241 1       1.21100000e+02    5.12958400e+02
   1185    1184    1206 1       1.21100000e+02    5.12958400e+02
   1185    1187    1188 1       1.20640000e+02    5.08439680e+02
   1185    1187    1203 1       1.20020000e+02    5.32790560e+02
   1186    1185    1187 1       1.19880000e+02    3.75723200e+02
   1187    1188    1189 1       1.14530000e+02    3.58485120e+02
   1187    1188    1190 1       1.16810000e+02    4.91368960e+02
   1187    1188    1198 1       1.24830000e+02    4.77729120e+02
   1187    1203    1190 1       1.20640000e+02    5.08439680e+02
   1187    1203    1204 1       1.20020000e+02    5.32790560e+02
   1188    1187    1203 1       1.20640000e+02    5.08439680e+02
   1188    1190    1191 1       1.14760000e+02    3.49364000e+02
   1188    1190    1192 1       1.22490000e+02    4.75804480e+02
   1188    1190    1203 1       1.16810000e+02    4.91368960e+02
   1188    1198    1196 1       9.60300000e+01    5.40070720e+02
   1188    1198    1199 1       1.12000000e+02    3.56811520e+02
   1188    1198    1200 1       1.03090000e+02    5.20322240e+02
   1189    1188    1190 1       1.14760000e+02    3.49364000e+02
   1189    1188    1198 1       1.13690000e+02    3.54217440e+02
   1190    1188    1198 1       1.22490000e+02    4.75804480e+02
   1190    1192    1193 1       1.12000000e+02    3.56811520e+02
   1190    1192    1194 1       9.60300000e+01    5.40070720e+02
   1190    1192    1200 1       1.03090000e+02    5.20322240e+02
   1190    1203    1204 1       1.20640000e+02    5.08439680e+02
   1191    1190    1192 1       1.13690000e+02    3.54217440e+02
   1191    1190    1203 1       1.14530000e+02    3.58485120e+02
   1192    1190    1203 1       1.24830000e+02    4.77729120e+02
   1192    1194    1195 1       1.13690000e+02    3.54217440e+02
   1192    1194    1196 1       1.22490000e+02    4.75804480e+02
   1192    1194    2469 1       1.24830000e+02    4.77729120e+02
   1192    1200    1198 1       1.03830000e+02    5.17477120e+02
   1192    1200    1201 1       1.11170000e+02    3.56895200e+02
   1192    1200    1202 1       1.11170000e+02    3.56895200e+02
   1193    1192    1200 1       1.11170000e+02    3.56895200e+02
   1194    1192    1193 1       1.12000000e+02    3.56811520e+02
   1194    1196    1197 1       1.14760000e+02    3.49364000e+02
   1196    1194    1195 1       1.14760000e+02    3.49364000e+02
   1196    1198    1199 1       1.12000000e+02    3.56811520e+02
   1198    1196    1194 1       1.22490000e+02    4.75804480e+02
   1198    1196    1197 1       1.13690000e+02    3.54217440e+02
   1198    1196    2468 1       1.24830000e+02    4.77729120e+02
   1198    1200    1201 1       1.11170000e+02    3.56895200e+02
   1198    1200    1202 1       1.11170000e+02    3.56895200e+02
   1199    1198    1200 1       1.11170000e+02    3.56895200e+02
   1200    1192    1194 1       1.03090000e+02    5.20322240e+02
   1200    1198    1196 1       1.03090000e+02    5.20322240e+02
   1201    1200    1202 1       1.07220000e+02    3.00494880e+02
   1203    1204    1205 1       1.19880000e+02    3.75723200e+02
   1206    1207    1208 1       1.20730000e+02    5.29945440e+02
   1206    1241    1240 1       1.20730000e+02    5.29945440e+02
   1206    1241    1242 1       1.19820000e+02    3.74300640e+02
   1207    1206    1241 1       1.18410000e+02    5.33794720e+02
   1207    1208    1209 1       1.19880000e+02    3.75723200e+02
   1207    1208    1210 1       1.20020000e+02    5.32790560e+02
   1208    1210    1211 1       1.20640000e+02    5.08439680e+02
   1208    1210    1240 1       1.20020000e+02    5.32790560e+02
   1209    1208    1210 1       1.19880000e+02    3.75723200e+02
   1210    1211    1212 1       1.14530000e+02    3.58485120e+02
   1210    1211    1213 1       1.16810000e+02    4.91368960e+02
   1210    1211    1235 1       1.24830000e+02    4.77729120e+02
   1210    1240    1213 1       1.20640000e+02    5.08439680e+02
   1210    1240    1241 1       1.20020000e+02    5.32790560e+02
   1211    1210    1240 1       1.20640000e+02    5.08439680e+02
   1211    1213    1214 1       1.14760000e+02    3.49364000e+02
   1211    1213    1215 1       1.22490000e+02    4.75804480e+02
   1211    1213    1240 1       1.16810000e+02    4.91368960e+02
   1211    1235    1233 1       9.60300000e+01    5.40070720e+02
   1211    1235    1236 1       1.12000000e+02    3.56811520e+02
   1211    1235    1237 1       1.03090000e+02    5.20322240e+02
   1212    1211    1213 1       1.14760000e+02    3.49364000e+02
   1212    1211    1235 1       1.13690000e+02    3.54217440e+02
   1213    1211    1235 1       1.22490000e+02    4.75804480e+02
   1213    1215    1216 1       1.12000000e+02    3.56811520e+02
   1213    1215    1217 1       9.60300000e+01    5.40070720e+02
   1213    1215    1237 1       1.03090000e+02    5.20322240e+02
   1213    1240    1241 1       1.20640000e+02    5.08439680e+02
   1214    1213    1215 1       1.13690000e+02    3.54217440e+02
   1214    1213    1240 1       1.14530000e+02    3.58485120e+02
   1215    1213    1240 1       1.24830000e+02    4.77729120e+02
   1215    1217    1218 1       1.13690000e+02    3.54217440e+02
   1215    1217    1219 1       1.24830000e+02    4.77729120e+02
   1215    1217    1233 1       1.22490000e+02    4.75804480e+02
   1215    1237    1235 1       1.03830000e+02    5.17477120e+02
   1215    1237    1238 1       1.11170000e+02    3.56895200e+02
   1215    1237    1239 1       1.11170000e+02    3.56895200e+02
   1216    1215    1217 1       1.12000000e+02    3.56811520e+02
   1216    1215    1237 1       1.11170000e+02    3.56895200e+02
   1217    1215    1237 1       1.03090000e+02    5.20322240e+02
   1217    1219    1220 1       1.20640000e+02    5.08439680e+02
   1217    1219    1228 1       1.20640000e+02    5.08439680e+02
   1217    1233    1220 1       1.16810000e+02    4.91368960e+02
   1217    1233    1234 1       1.14760000e+02    3.49364000e+02
   1217    1233    1235 1       1.22490000e+02    4.75804480e+02
   1218    1217    1219 1       1.14530000e+02    3.58485120e+02
   1218    1217    1233 1       1.14760000e+02    3.49364000e+02
   1219    1217    1233 1       1.16810000e+02    4.91368960e+02
   1219    1220    1221 1       1.20020000e+02    5.32790560e+02
   1219    1220    1233 1       1.20640000e+02    5.08439680e+02
   1219    1228    1227 1       1.20020000e+02    5.32790560e+02
   1219    1228    1229 1       1.20830000e+02    5.08272320e+02
   1220    1219    1228 1       1.20020000e+02    5.32790560e+02
   1220    1221    1222 1       1.20830000e+02    5.08272320e+02
   1220    1221    1226 1       1.20020000e+02    5.32790560e+02
   1220    1233    1234 1       1.14530000e+02    3.58485120e+02
   1220    1233    1235 1       1.24830000e+02    4.77729120e+02
   1221    1220    1233 1       1.20640000e+02    5.08439680e+02
   1221    1222    1223 1       1.10630000e+02    3.64928480e+02
   1221    1222    1224 1       1.10630000e+02    3.64928480e+02
   1221    1222    1225 1       1.10630000e+02    3.64928480e+02
   1221    1226    1227 1       1.20020000e+02    5.32790560e+02
   1221    1226    3197 1       1.20640000e+02    5.08439680e+02
   1222    1221    1226 1       1.20830000e+02    5.08272320e+02
   1223    1222    1224 1       1.07730000e+02    2.99574400e+02
   1223    1222    1225 1       1.07730000e+02    2.99574400e+02
   1224    1222    1225 1       1.07730000e+02    2.99574400e+02
   1226    1227    1228 1       1.20020000e+02    5.32790560e+02
   1226    1227    3195 1       1.20640000e+02    5.08439680e+02
   1226    3197    3195 1       1.16810000e+02    4.91368960e+02
   1226    3197    3198 1       1.14530000e+02    3.58485120e+02
   1227    1226    3197 1       1.20640000e+02    5.08439680e+02
   1227    3195    3196 1       1.14530000e+02    3.58485120e+02
   1227    3195    3197 1       1.16810000e+02    4.91368960e+02
   1228    1227    3195 1       1.20640000e+02    5.08439680e+02
   1228    1229    1230 1       1.10630000e+02    3.64928480e+02
   1228    1229    1231 1       1.10630000e+02    3.64928480e+02
   1228    1229    1232 1       1.10630000e+02    3.64928480e+02
   1229    1228    1227 1       1.20830000e+02    5.08272320e+02
   1230    1229    1231 1       1.07730000e+02    2.99574400e+02
   1230    1229    1232 1       1.07730000e+02    2.99574400e+02
   1231    1229    1232 1       1.07730000e+02    2.99574400e+02
   1233    1235    1236 1       1.12000000e+02    3.56811520e+02
   1233    1235    1237 1       1.03090000e+02    5.20322240e+02
   1234    1233    1235 1       1.13690000e+02    3.54217440e+02
   1235    1237    1238 1       1.11170000e+02    3.56895200e+02
   1235    1237    1239 1       1.11170000e+02    3.56895200e+02
   1236    1235    1237 1       1.11170000e+02    3.56895200e+02
   1238    1237    1239 1       1.07220000e+02    3.00494880e+02
   1240    1241    1242 1       1.19880000e+02    3.75723200e+02
   1243    1247    1248 1       1.10280000e+02    5.05761920e+02
   1243    1247    1252 1       1.13070000e+02    5.03000480e+02
   1243    1247    1276 1       1.13070000e+02    5.03000480e+02
   1244    1243    1245 1       1.07730000e+02    2.99574400e+02
   1244    1243    1246 1       1.07730000e+02    2.99574400e+02
   1244    1243    1247 1       1.10530000e+02    3.60326080e+02
   1245    1243    1246 1       1.07730000e+02    2.99574400e+02
   1245    1243    1247 1       1.10530000e+02    3.60326080e+02
   1246    1243    1247 1       1.10530000e+02    3.60326080e+02
   1247    1248    1249 1       1.10530000e+02    3.60326080e+02
   1247    1248    1250 1       1.10530000e+02    3.60326080e+02
   1247    1248    1251 1       1.10530000e+02    3.60326080e+02
   1247    1252    1253 1       1.10210000e+02    5.31033280e+02
   1247    1252    1273 1       1.21870000e+02    5.06012960e+02
   1247    1276    1275 1       1.10210000e+02    5.31033280e+02
   1247    1276    1277 1       1.21870000e+02    5.06012960e+02
   1248    1247    1252 1       1.13070000e+02    5.03000480e+02
   1248    1247    1276 1       1.13070000e+02    5.03000480e+02
   1249    1248    1250 1       1.07730000e+02    2.99574400e+02
   1249    1248    1251 1       1.07730000e+02    2.99574400e+02
   1250    1248    1251 1       1.07730000e+02    2.99574400e+02
   1252    1247    1276 1       1.12520000e+02    5.08021280e+02
   1252    1253    1254 1       1.18410000e+02    5.33794720e+02
   1252    1253    1275 1       1.21100000e+02    5.12958400e+02
   1252    1273    1272 1       1.20020000e+02    5.32790560e+02
   1252    1273    1274 1       1.19880000e+02    3.75723200e+02
   1253    1252    1273 1       1.20730000e+02    5.29945440e+02
   1253    1254    1255 1       1.19820000e+02    3.74300640e+02
   1253    1254    1256 1       1.20730000e+02    5.29945440e+02
   1253    1275    1276 1       1.21100000e+02    5.12958400e+02
   1253    1275    1310 1       1.21100000e+02    5.12958400e+02
   1254    1253    1275 1       1.21100000e+02    5.12958400e+02
   1254    1256    1257 1       1.20640000e+02    5.08439680e+02
   1254    1256    1272 1       1.20020000e+02    5.32790560e+02
   1255    1254    1256 1       1.19880000e+02    3.75723200e+02
   1256    1257    1258 1       1.14530000e+02    3.58485120e+02
   1256    1257    1259 1       1.16810000e+02    4.91368960e+02
   1256    1257    1267 1       1.24830000e+02    4.77729120e+02
   1256    1272    1259 1       1.20640000e+02    5.08439680e+02
   1256    1272    1273 1       1.20020000e+02    5.32790560e+02
   1257    1256    1272 1       1.20640000e+02    5.08439680e+02
   1257    1259    1260 1       1.14760000e+02    3.49364000e+02
   1257    1259    1261 1       1.22490000e+02    4.75804480e+02
   1257    1259    1272 1       1.16810000e+02    4.91368960e+02
   1257    1267    1265 1       9.60300000e+01    5.40070720e+02
   1257    1267    1268 1       1.12000000e+02    3.56811520e+02
   1257    1267    1269 1       1.03090000e+02    5.20322240e+02
   1258    1257    1259 1       1.14760000e+02    3.49364000e+02
   1258    1257    1267 1       1.13690000e+02    3.54217440e+02
   1259    1257    1267 1       1.22490000e+02    4.75804480e+02
   1259    1261    1262 1       1.12000000e+02    3.56811520e+02
   1259    1261    1263 1       9.60300000e+01    5.40070720e+02
   1259    1261    1269 1       1.03090000e+02    5.20322240e+02
   1259    1272    1273 1       1.20640000e+02    5.08439680e+02
   1260    1259    1261 1       1.13690000e+02    3.54217440e+02
   1260    1259    1272 1       1.14530000e+02    3.58485120e+02
   1261    1259    1272 1       1.24830000e+02    4.77729120e+02
   1261    1263    1264 1       1.13690000e+02    3.54217440e+02
   1261    1263    1265 1       1.22490000e+02    4.75804480e+02
   1261    1263    4676 1       1.24830000e+02    4.77729120e+02
   1261    1269    1267 1       1.03830000e+02    5.17477120e+02
   1261    1269    1270 1       1.11170000e+02    3.56895200e+02
   1261    1269    1271 1       1.11170000e+02    3.56895200e+02
   1262    1261    1269 1       1.11170000e+02    3.56895200e+02
   1263    1261    1262 1       1.12000000e+02    3.56811520e+02
   1263    1265    1266 1       1.14760000e+02    3.49364000e+02
   1265    1263    1264 1       1.14760000e+02    3.49364000e+02
   1265    1267    1268 1       1.12000000e+02    3.56811520e+02
   1267    1265    1263 1       1.22490000e+02    4.75804480e+02
   1267    1265    1266 1       1.13690000e+02    3.54217440e+02
   1267    1265    4677 1       1.24830000e+02    4.77729120e+02
   1267    1269    1270 1       1.11170000e+02    3.56895200e+02
   1267    1269    1271 1       1.11170000e+02    3.56895200e+02
   1268    1267    1269 1       1.11170000e+02    3.56895200e+02
   1269    1261    1263 1       1.03090000e+02    5.20322240e+02
   1269    1267    1265 1       1.03090000e+02    5.20322240e+02
   1270    1269    1271 1       1.07220000e+02    3.00494880e+02
   1272    1273    1274 1       1.19880000e+02    3.75723200e+02
   1275    1276    1277 1       1.20730000e+02    5.29945440e+02
   1275    1310    1309 1       1.20730000e+02    5.29945440e+02
   1275    1310    1311 1       1.19820000e+02    3.74300640e+02
   1276    1275    1310 1       1.18410000e+02    5.33794720e+02
   1276    1277    1278 1       1.19880000e+02    3.75723200e+02
   1276    1277    1279 1       1.20020000e+02    5.32790560e+02
   1277    1279    1280 1       1.20640000e+02    5.08439680e+02
   1277    1279    1309 1       1.20020000e+02    5.32790560e+02
   1278    1277    1279 1       1.19880000e+02    3.75723200e+02
   1279    1280    1281 1       1.14530000e+02    3.58485120e+02
   1279    1280    1282 1       1.16810000e+02    4.91368960e+02
   1279    1280    1304 1       1.24830000e+02    4.77729120e+02
   1279    1309    1282 1       1.20640000e+02    5.08439680e+02
   1279    1309    1310 1       1.20020000e+02    5.32790560e+02
   1280    1279    1309 1       1.20640000e+02    5.08439680e+02
   1280    1282    1283 1       1.14760000e+02    3.49364000e+02
   1280    1282    1284 1       1.22490000e+02    4.75804480e+02
   1280    1282    1309 1       1.16810000e+02    4.91368960e+02
   1280    1304    1302 1       9.60300000e+01    5.40070720e+02
   1280    1304    1305 1       1.12000000e+02    3.56811520e+02
   1280    1304    1306 1       1.03090000e+02    5.20322240e+02
   1281    1280    1282 1       1.14760000e+02    3.49364000e+02
   1281    1280    1304 1       1.13690000e+02    3.54217440e+02
   1282    1280    1304 1       1.22490000e+02    4.75804480e+02
   1282    1284    1285 1       1.12000000e+02    3.56811520e+02
   1282    1284    1286 1       9.60300000e+01    5.40070720e+02
   1282    1284    1306 1       1.03090000e+02    5.20322240e+02
   1282    1309    1310 1       1.20640000e+02    5.08439680e+02
   1283    1282    1284 1       1.13690000e+02    3.54217440e+02
   1283    1282    1309 1       1.14530000e+02    3.58485120e+02
   1284    1282    1309 1       1.24830000e+02    4.77729120e+02
   1284    1286    1287 1       1.13690000e+02    3.54217440e+02
   1284    1286    1288 1       1.24830000e+02    4.77729120e+02
   1284    1286    1302 1       1.22490000e+02    4.75804480e+02
   1284    1306    1304 1       1.03830000e+02    5.17477120e+02
   1284    1306    1307 1       1.11170000e+02    3.56895200e+02
   1284    1306    1308 1       1.11170000e+02    3.56895200e+02
   1285    1284    1286 1       1.12000000e+02    3.56811520e+02
   1285    1284    1306 1       1.11170000e+02    3.56895200e+02
   1286    1284    1306 1       1.03090000e+02    5.20322240e+02
   1286    1288    1289 1       1.20640000e+02    5.08439680e+02
   1286    1288    1297 1       1.20640000e+02    5.08439680e+02
   1286    1302    1289 1       1.16810000e+02    4.91368960e+02
   1286    1302    1303 1       1.14760000e+02    3.49364000e+02
   1286    1302    1304 1       1.22490000e+02    4.75804480e+02
   1287    1286    1288 1       1.14530000e+02    3.58485120e+02
   1287    1286    1302 1       1.14760000e+02    3.49364000e+02
   1288    1286    1302 1       1.16810000e+02    4.91368960e+02
   1288    1289    1290 1       1.20020000e+02    5.32790560e+02
   1288    1289    1302 1       1.20640000e+02    5.08439680e+02
   1288    1297    1296 1       1.20020000e+02    5.32790560e+02
   1288    1297    1298 1       1.20830000e+02    5.08272320e+02
   1289    1288    1297 1       1.20020000e+02    5.32790560e+02
   1289    1290    1291 1       1.20830000e+02    5.08272320e+02
   1289    1290    1295 1       1.20020000e+02    5.32790560e+02
   1289    1302    1303 1       1.14530000e+02    3.58485120e+02
   1289    1302    1304 1       1.24830000e+02    4.77729120e+02
   1290    1289    1302 1       1.20640000e+02    5.08439680e+02
   1290    1291    1292 1       1.10630000e+02    3.64928480e+02
   1290    1291    1293 1       1.10630000e+02    3.64928480e+02
   1290    1291    1294 1       1.10630000e+02    3.64928480e+02
   1290    1295    1296 1       1.20020000e+02    5.32790560e+02
   1290    1295    5817 1       1.20640000e+02    5.08439680e+02
   1291    1290    1295 1       1.20830000e+02    5.08272320e+02
   1292    1291    1293 1       1.07730000e+02    2.99574400e+02
   1292    1291    1294 1       1.07730000e+02    2.99574400e+02
   1293    1291    1294 1       1.07730000e+02    2.99574400e+02
   1295    1296    1297 1       1.20020000e+02    5.32790560e+02
   1295    1296    5819 1       1.20640000e+02    5.08439680e+02
   1295    5817    5818 1       1.14530000e+02    3.58485120e+02
   1295    5817    5819 1       1.16810000e+02    4.91368960e+02
   1296    1295    5817 1       1.20640000e+02    5.08439680e+02
   1296    5819    5817 1       1.16810000e+02    4.91368960e+02
   1296    5819    5820 1       1.14530000e+02    3.58485120e+02
   1297    1296    5819 1       1.20640000e+02    5.08439680e+02
   1297    1298    1299 1       1.10630000e+02    3.64928480e+02
   1297    1298    1300 1       1.10630000e+02    3.64928480e+02
   1297    1298    1301 1       1.10630000e+02    3.64928480e+02
   1298    1297    1296 1       1.20830000e+02    5.08272320e+02
   1299    1298    1300 1       1.07730000e+02    2.99574400e+02
   1299    1298    1301 1       1.07730000e+02    2.99574400e+02
   1300    1298    1301 1       1.07730000e+02    2.99574400e+02
   1302    1304    1305 1       1.12000000e+02    3.56811520e+02
   1302    1304    1306 1       1.03090000e+02    5.20322240e+02
   1303    1302    1304 1       1.13690000e+02    3.54217440e+02
   1304    1306    1307 1       1.11170000e+02    3.56895200e+02
   1304    1306    1308 1       1.11170000e+02    3.56895200e+02
   1305    1304    1306 1       1.11170000e+02    3.56895200e+02
   1307    1306    1308 1       1.07220000e+02    3.00494880e+02
   1309    1310    1311 1       1.19880000e+02    3.75723200e+02
   1312    1316    1317 1       1.10280000e+02    5.05761920e+02
   1312    1316    1321 1       1.13070000e+02    5.03000480e+02
   1312    1316    1345 1       1.13070000e+02    5.03000480e+02
   1313    1312    1314 1       1.07730000e+02    2.99574400e+02
   1313    1312    1315 1       1.07730000e+02    2.99574400e+02
   1313    1312    1316 1       1.10530000e+02    3.60326080e+02
   1314    1312    1315 1       1.07730000e+02    2.99574400e+02
   1314    1312    1316 1       1.10530000e+02    3.60326080e+02
   1315    1312    1316 1       1.10530000e+02    3.60326080e+02
   1316    1317    1318 1       1.10530000e+02    3.60326080e+02
   1316    1317    1319 1       1.10530000e+02    3.60326080e+02
   1316    1317    1320 1       1.10530000e+02    3.60326080e+02
   1316    1321    1322 1       1.10210000e+02    5.31033280e+02
   1316    1321    1342 1       1.21870000e+02    5.06012960e+02
   1316    1345    1344 1       1.10210000e+02    5.31033280e+02
   1316    1345    1346 1       1.21870000e+02    5.06012960e+02
   1317    1316    1321 1       1.13070000e+02    5.03000480e+02
   1317    1316    1345 1       1.13070000e+02    5.03000480e+02
   1318    1317    1319 1       1.07730000e+02    2.99574400e+02
   1318    1317    1320 1       1.07730000e+02    2.99574400e+02
   1319    1317    1320 1       1.07730000e+02    2.99574400e+02
   1321    1316    1345 1       1.12520000e+02    5.08021280e+02
   1321    1322    1323 1       1.18410000e+02    5.33794720e+02
   1321    1322    1344 1       1.21100000e+02    5.12958400e+02
   1321    1342    1341 1       1.20020000e+02    5.32790560e+02
   1321    1342    1343 1       1.19880000e+02    3.75723200e+02
   1322    1321    1342 1       1.20730000e+02    5.29945440e+02
   1322    1323    1324 1       1.19820000e+02    3.74300640e+02
   1322    1323    1325 1       1.20730000e+02    5.29945440e+02
   1322    1344    1345 1       1.21100000e+02    5.12958400e+02
   1322    1344    1379 1       1.21100000e+02    5.12958400e+02
   1323    1322    1344 1       1.21100000e+02    5.12958400e+02
   1323    1325    1326 1       1.20640000e+02    5.08439680e+02
   1323    1325    1341 1       1.20020000e+02    5.32790560e+02
   1324    1323    1325 1       1.19880000e+02    3.75723200e+02
   1325    1326    1327 1       1.14530000e+02    3.58485120e+02
   1325    1326    1328 1       1.16810000e+02    4.91368960e+02
   1325    1326    1336 1       1.24830000e+02    4.77729120e+02
   1325    1341    1328 1       1.20640000e+02    5.08439680e+02
   1325    1341    1342 1       1.20020000e+02    5.32790560e+02
   1326    1325    1341 1       1.20640000e+02    5.08439680e+02
   1326    1328    1329 1       1.14760000e+02    3.49364000e+02
   1326    1328    1330 1       1.22490000e+02    4.75804480e+02
   1326    1328    1341 1       1.16810000e+02    4.91368960e+02
   1326    1336    1334 1       9.60300000e+01    5.40070720e+02
   1326    1336    1337 1       1.12000000e+02    3.56811520e+02
   1326    1336    1338 1       1.03090000e+02    5.20322240e+02
   1327    1326    1328 1       1.14760000e+02    3.49364000e+02
   1327    1326    1336 1       1.13690000e+02    3.54217440e+02
   1328    1326    1336 1       1.22490000e+02    4.75804480e+02
   1328    1330    1331 1       1.12000000e+02    3.56811520e+02
   1328    1330    1332 1       9.60300000e+01    5.40070720e+02
   1328    1330    1338 1       1.03090000e+02    5.20322240e+02
   1328    1341    1342 1       1.20640000e+02    5.08439680e+02
   1329    1328    1330 1       1.13690000e+02    3.54217440e+02
   1329    1328    1341 1       1.14530000e+02    3.58485120e+02
   1330    1328    1341 1       1.24830000e+02    4.77729120e+02
   1330    1332    1333 1       1.13690000e+02    3.54217440e+02
   1330    1332    1334 1       1.22490000e+02    4.75804480e+02
   1330    1332    5574 1       1.24830000e+02    4.77729120e+02
   1330    1338    1336 1       1.03830000e+02    5.17477120e+02
   1330    1338    1339 1       1.11170000e+02    3.56895200e+02
   1330    1338    1340 1       1.11170000e+02    3.56895200e+02
   1331    1330    1338 1       1.11170000e+02    3.56895200e+02
   1332    1330    1331 1       1.12000000e+02    3.56811520e+02
   1332    1334    1335 1       1.14760000e+02    3.49364000e+02
   1334    1332    1333 1       1.14760000e+02    3.49364000e+02
   1334    1336    1337 1       1.12000000e+02    3.56811520e+02
   1336    1334    1332 1       1.22490000e+02    4.75804480e+02
   1336    1334    1335 1       1.13690000e+02    3.54217440e+02
   1336    1334    5573 1       1.24830000e+02    4.77729120e+02
   1336    1338    1339 1       1.11170000e+02    3.56895200e+02
   1336    1338    1340 1       1.11170000e+02    3.56895200e+02
   1337    1336    1338 1       1.11170000e+02    3.56895200e+02
   1338    1330    1332 1       1.03090000e+02    5.20322240e+02
   1338    1336    1334 1       1.03090000e+02    5.20322240e+02
   1339    1338    1340 1       1.07220000e+02    3.00494880e+02
   1341    1342    1343 1       1.19880000e+02    3.75723200e+02
   1344    1345    1346 1       1.20730000e+02    5.29945440e+02
   1344    1379    1378 1       1.20730000e+02    5.29945440e+02
   1344    1379    1380 1       1.19820000e+02    3.74300640e+02
   1345    1344    1379 1       1.18410000e+02    5.33794720e+02
   1345    1346    1347 1       1.19880000e+02    3.75723200e+02
   1345    1346    1348 1       1.20020000e+02    5.32790560e+02
   1346    1348    1349 1       1.20640000e+02    5.08439680e+02
   1346    1348    1378 1       1.20020000e+02    5.32790560e+02
   1347    1346    1348 1       1.19880000e+02    3.75723200e+02
   1348    1349    1350 1       1.14530000e+02    3.58485120e+02
   1348    1349    1351 1       1.16810000e+02    4.91368960e+02
   1348    1349    1373 1       1.24830000e+02    4.77729120e+02
   1348    1378    1351 1       1.20640000e+02    5.08439680e+02
   1348    1378    1379 1       1.20020000e+02    5.32790560e+02
   1349    1348    1378 1       1.20640000e+02    5.08439680e+02
   1349    1351    1352 1       1.14760000e+02    3.49364000e+02
   1349    1351    1353 1       1.22490000e+02    4.75804480e+02
   1349    1351    1378 1       1.16810000e+02    4.91368960e+02
   1349    1373    1371 1       9.60300000e+01    5.40070720e+02
   1349    1373    1374 1       1.12000000e+02    3.56811520e+02
   1349    1373    1375 1       1.03090000e+02    5.20322240e+02
   1350    1349    1351 1       1.14760000e+02    3.49364000e+02
   1350    1349    1373 1       1.13690000e+02    3.54217440e+02
   1351    1349    1373 1       1.22490000e+02    4.75804480e+02
   1351    1353    1354 1       1.12000000e+02    3.56811520e+02
   1351    1353    1355 1       9.60300000e+01    5.40070720e+02
   1351    1353    1375 1       1.03090000e+02    5.20322240e+02
   1351    1378    1379 1       1.20640000e+02    5.08439680e+02
   1352    1351    1353 1       1.13690000e+02    3.54217440e+02
   1352    1351    1378 1       1.14530000e+02    3.58485120e+02
   1353    1351    1378 1       1.24830000e+02    4.77729120e+02
   1353    1355    1356 1       1.13690000e+02    3.54217440e+02
   1353    1355    1357 1       1.24830000e+02    4.77729120e+02
   1353    1355    1371 1       1.22490000e+02    4.75804480e+02
   1353    1375    1373 1       1.03830000e+02    5.17477120e+02
   1353    1375    1376 1       1.11170000e+02    3.56895200e+02
   1353    1375    1377 1       1.11170000e+02    3.56895200e+02
   1354    1353    1355 1       1.12000000e+02    3.56811520e+02
   1354    1353    1375 1       1.11170000e+02    3.56895200e+02
   1355    1353    1375 1       1.03090000e+02    5.20322240e+02
   1355    1357    1358 1       1.20640000e+02    5.08439680e+02
   1355    1357    1366 1       1.20640000e+02    5.08439680e+02
   1355    1371    1358 1       1.16810000e+02    4.91368960e+02
   1355    1371    1372 1       1.14760000e+02    3.49364000e+02
   1355    1371    1373 1       1.22490000e+02    4.75804480e+02
   1356    1355    1357 1       1.14530000e+02    3.58485120e+02
   1356    1355    1371 1       1.14760000e+02    3.49364000e+02
   1357    1355    1371 1       1.16810000e+02    4.91368960e+02
   1357    1358    1359 1       1.20020000e+02    5.32790560e+02
   1357    1358    1371 1       1.20640000e+02    5.08439680e+02
   1357    1366    1365 1       1.20020000e+02    5.32790560e+02
   1357    1366    1367 1       1.20830000e+02    5.08272320e+02
   1358    1357    1366 1       1.20020000e+02    5.32790560e+02
   1358    1359    1360 1       1.20830000e+02    5.08272320e+02
   1358    1359    1364 1       1.20020000e+02    5.32790560e+02
   1358    1371    1372 1       1.14530000e+02    3.58485120e+02
   1358    1371    1373 1       1.24830000e+02    4.77729120e+02
   1359    1358    1371 1       1.20640000e+02    5.08439680e+02
   1359    1360    1361 1       1.10630000e+02    3.64928480e+02
   1359    1360    1362 1       1.10630000e+02    3.64928480e+02
   1359    1360    1363 1       1.10630000e+02    3.64928480e+02
   1359    1364    1365 1       1.20020000e+02    5.32790560e+02
   1359    1364    3126 1       1.20640000e+02    5.08439680e+02
   1360    1359    1364 1       1.20830000e+02    5.08272320e+02
   1361    1360    1362 1       1.07730000e+02    2.99574400e+02
   1361    1360    1363 1       1.07730000e+02    2.99574400e+02
   1362    1360    1363 1       1.07730000e+02    2.99574400e+02
   1364    1365    1366 1       1.20020000e+02    5.32790560e+02
   1364    1365    3128 1       1.20640000e+02    5.08439680e+02
   1364    3126    3127 1       1.14530000e+02    3.58485120e+02
   1364    3126    3128 1       1.16810000e+02    4.91368960e+02
   1365    1364    3126 1       1.20640000e+02    5.08439680e+02
   1365    3128    3126 1       1.16810000e+02    4.91368960e+02
   1365    3128    3129 1       1.14530000e+02    3.58485120e+02
   1366    1365    3128 1       1.20640000e+02    5.08439680e+02
   1366    1367    1368 1       1.10630000e+02    3.64928480e+02
   1366    1367    1369 1       1.10630000e+02    3.64928480e+02
   1366    1367    1370 1       1.10630000e+02    3.64928480e+02
   1367    1366    1365 1       1.20830000e+02    5.08272320e+02
   1368    1367    1369 1       1.07730000e+02    2.99574400e+02
   1368    1367    1370 1       1.07730000e+02    2.99574400e+02
   1369    1367    1370 1       1.07730000e+02    2.99574400e+02
   1371    1373    1374 1       1.12000000e+02    3.56811520e+02
   1371    1373    1375 1       1.03090000e+02    5.20322240e+02
   1372    1371    1373 1       1.13690000e+02    3.54217440e+02
   1373    1375    1376 1       1.11170000e+02    3.56895200e+02
   1373    1375    1377 1       1.11170000e+02    3.56895200e+02
   1374    1373    1375 1       1.11170000e+02    3.56895200e+02
   1376    1375    1377 1       1.07220000e+02    3.00494880e+02
   1378    1379    1380 1       1.19880000e+02    3.75723200e+02
   1381    1385    1386 1       1.10280000e+02    5.05761920e+02
   1381    1385    1390 1       1.13070000e+02    5.03000480e+02
   1381    1385    1414 1       1.13070000e+02    5.03000480e+02
   1382    1381    1383 1       1.07730000e+02    2.99574400e+02
   1382    1381    1384 1       1.07730000e+02    2.99574400e+02
   1382    1381    1385 1       1.10530000e+02    3.60326080e+02
   1383    1381    1384 1       1.07730000e+02    2.99574400e+02
   1383    1381    1385 1       1.10530000e+02    3.60326080e+02
   1384    1381    1385 1       1.10530000e+02    3.60326080e+02
   1385    1386    1387 1       1.10530000e+02    3.60326080e+02
   1385    1386    1388 1       1.10530000e+02    3.60326080e+02
   1385    1386    1389 1       1.10530000e+02    3.60326080e+02
   1385    1390    1391 1       1.10210000e+02    5.31033280e+02
   1385    1390    1411 1       1.21870000e+02    5.06012960e+02
   1385    1414    1413 1       1.10210000e+02    5.31033280e+02
   1385    1414    1415 1       1.21870000e+02    5.06012960e+02
   1386    1385    1390 1       1.13070000e+02    5.03000480e+02
   1386    1385    1414 1       1.13070000e+02    5.03000480e+02
   1387    1386    1388 1       1.07730000e+02    2.99574400e+02
   1387    1386    1389 1       1.07730000e+02    2.99574400e+02
   1388    1386    1389 1       1.07730000e+02    2.99574400e+02
   1390    1385    1414 1       1.12520000e+02    5.08021280e+02
   1390    1391    1392 1       1.18410000e+02    5.33794720e+02
   1390    1391    1413 1       1.21100000e+02    5.12958400e+02
   1390    1411    1410 1       1.20020000e+02    5.32790560e+02
   1390    1411    1412 1       1.19880000e+02    3.75723200e+02
   1391    1390    1411 1       1.20730000e+02    5.29945440e+02
   1391    1392    1393 1       1.19820000e+02    3.74300640e+02
   1391    1392    1394 1       1.20730000e+02    5.29945440e+02
   1391    1413    1414 1       1.21100000e+02    5.12958400e+02
   1391    1413    1448 1       1.21100000e+02    5.12958400e+02
   1392    1391    1413 1       1.21100000e+02    5.12958400e+02
   1392    1394    1395 1       1.20640000e+02    5.08439680e+02
   1392    1394    1410 1       1.20020000e+02    5.32790560e+02
   1393    1392    1394 1       1.19880000e+02    3.75723200e+02
   1394    1395    1396 1       1.14530000e+02    3.58485120e+02
   1394    1395    1397 1       1.16810000e+02    4.91368960e+02
   1394    1395    1405 1       1.24830000e+02    4.77729120e+02
   1394    1410    1397 1       1.20640000e+02    5.08439680e+02
   1394    1410    1411 1       1.20020000e+02    5.32790560e+02
   1395    1394    1410 1       1.20640000e+02    5.08439680e+02
   1395    1397    1398 1       1.14760000e+02    3.49364000e+02
   1395    1397    1399 1       1.22490000e+02    4.75804480e+02
   1395    1397    1410 1       1.16810000e+02    4.91368960e+02
   1395    1405    1403 1       9.60300000e+01    5.40070720e+02
   1395    1405    1406 1       1.12000000e+02    3.56811520e+02
   1395    1405    1407 1       1.03090000e+02    5.20322240e+02
   1396    1395    1397 1       1.14760000e+02    3.49364000e+02
   1396    1395    1405 1       1.13690000e+02    3.54217440e+02
   1397    1395    1405 1       1.22490000e+02    4.75804480e+02
   1397    1399    1400 1       1.12000000e+02    3.56811520e+02
   1397    1399    1401 1       9.60300000e+01    5.40070720e+02
   1397    1399    1407 1       1.03090000e+02    5.20322240e+02
   1397    1410    1411 1       1.20640000e+02    5.08439680e+02
   1398    1397    1399 1       1.13690000e+02    3.54217440e+02
   1398    1397    1410 1       1.14530000e+02    3.58485120e+02
   1399    1397    1410 1       1.24830000e+02    4.77729120e+02
   1399    1401    1402 1       1.13690000e+02    3.54217440e+02
   1399    1401    1403 1       1.22490000e+02    4.75804480e+02
   1399    1401    3503 1       1.24830000e+02    4.77729120e+02
   1399    1407    1405 1       1.03830000e+02    5.17477120e+02
   1399    1407    1408 1       1.11170000e+02    3.56895200e+02
   1399    1407    1409 1       1.11170000e+02    3.56895200e+02
   1400    1399    1407 1       1.11170000e+02    3.56895200e+02
   1401    1399    1400 1       1.12000000e+02    3.56811520e+02
   1401    1403    1404 1       1.14760000e+02    3.49364000e+02
   1403    1401    1402 1       1.14760000e+02    3.49364000e+02
   1403    1405    1406 1       1.12000000e+02    3.56811520e+02
   1405    1403    1401 1       1.22490000e+02    4.75804480e+02
   1405    1403    1404 1       1.13690000e+02    3.54217440e+02
   1405    1403    3504 1       1.24830000e+02    4.77729120e+02
   1405    1407    1408 1       1.11170000e+02    3.56895200e+02
   1405    1407    1409 1       1.11170000e+02    3.56895200e+02
   1406    1405    1407 1       1.11170000e+02    3.56895200e+02
   1407    1399    1401 1       1.03090000e+02    5.20322240e+02
   1407    1405    1403 1       1.03090000e+02    5.20322240e+02
   1408    1407    1409 1       1.07220000e+02    3.00494880e+02
   1410    1411    1412 1       1.19880000e+02    3.75723200e+02
   1413    1414    1415 1       1.20730000e+02    5.29945440e+02
   1413    1448    1447 1       1.20730000e+02    5.29945440e+02
   1413    1448    1449 1       1.19820000e+02    3.74300640e+02
   1414    1413    1448 1       1.18410000e+02    5.33794720e+02
   1414    1415    1416 1       1.19880000e+02    3.75723200e+02
   1414    1415    1417 1       1.20020000e+02    5.32790560e+02
   1415    1417    1418 1       1.20640000e+02    5.08439680e+02
   1415    1417    1447 1       1.20020000e+02    5.32790560e+02
   1416    1415    1417 1       1.19880000e+02    3.75723200e+02
   1417    1418    1419 1       1.14530000e+02    3.58485120e+02
   1417    1418    1420 1       1.16810000e+02    4.91368960e+02
   1417    1418    1442 1       1.24830000e+02    4.77729120e+02
   1417    1447    1420 1       1.20640000e+02    5.08439680e+02
   1417    1447    1448 1       1.20020000e+02    5.32790560e+02
   1418    1417    1447 1       1.20640000e+02    5.08439680e+02
   1418    1420    1421 1       1.14760000e+02    3.49364000e+02
   1418    1420    1422 1       1.22490000e+02    4.75804480e+02
   1418    1420    1447 1       1.16810000e+02    4.91368960e+02
   1418    1442    1440 1       9.60300000e+01    5.40070720e+02
   1418    1442    1443 1       1.12000000e+02    3.56811520e+02
   1418    1442    1444 1       1.03090000e+02    5.20322240e+02
   1419    1418    1420 1       1.14760000e+02    3.49364000e+02
   1419    1418    1442 1       1.13690000e+02    3.54217440e+02
   1420    1418    1442 1       1.22490000e+02    4.75804480e+02
   1420    1422    1423 1       1.12000000e+02    3.56811520e+02
   1420    1422    1424 1       9.60300000e+01    5.40070720e+02
   1420    1422    1444 1       1.03090000e+02    5.20322240e+02
   1420    1447    1448 1       1.20640000e+02    5.08439680e+02
   1421    1420    1422 1       1.13690000e+02    3.54217440e+02
   1421    1420    1447 1       1.14530000e+02    3.58485120e+02
   1422    1420    1447 1       1.24830000e+02    4.77729120e+02
   1422    1424    1425 1       1.13690000e+02    3.54217440e+02
   1422    1424    1426 1       1.24830000e+02    4.77729120e+02
   1422    1424    1440 1       1.22490000e+02    4.75804480e+02
   1422    1444    1442 1       1.03830000e+02    5.17477120e+02
   1422    1444    1445 1       1.11170000e+02    3.56895200e+02
   1422    1444    1446 1       1.11170000e+02    3.56895200e+02
   1423    1422    1424 1       1.12000000e+02    3.56811520e+02
   1423    1422    1444 1       1.11170000e+02    3.56895200e+02
   1424    1422    1444 1       1.03090000e+02    5.20322240e+02
   1424    1426    1427 1       1.20640000e+02    5.08439680e+02
   1424    1426    1435 1       1.20640000e+02    5.08439680e+02
   1424    1440    1427 1       1.16810000e+02    4.91368960e+02
   1424    1440    1441 1       1.14760000e+02    3.49364000e+02
   1424    1440    1442 1       1.22490000e+02    4.75804480e+02
   1425    1424    1426 1       1.14530000e+02    3.58485120e+02
   1425    1424    1440 1       1.14760000e+02    3.49364000e+02
   1426    1424    1440 1       1.16810000e+02    4.91368960e+02
   1426    1427    1428 1       1.20020000e+02    5.32790560e+02
   1426    1427    1440 1       1.20640000e+02    5.08439680e+02
   1426    1435    1434 1       1.20020000e+02    5.32790560e+02
   1426    1435    1436 1       1.20830000e+02    5.08272320e+02
   1427    1426    1435 1       1.20020000e+02    5.32790560e+02
   1427    1428    1429 1       1.20830000e+02    5.08272320e+02
   1427    1428    1433 1       1.20020000e+02    5.32790560e+02
   1427    1440    1441 1       1.14530000e+02    3.58485120e+02
   1427    1440    1442 1       1.24830000e+02    4.77729120e+02
   1428    1427    1440 1       1.20640000e+02    5.08439680e+02
   1428    1429    1430 1       1.10630000e+02    3.64928480e+02
   1428    1429    1431 1       1.10630000e+02    3.64928480e+02
   1428    1429    1432 1       1.10630000e+02    3.64928480e+02
   1428    1433    1434 1       1.20020000e+02    5.32790560e+02
   1428    1433    4301 1       1.20640000e+02    5.08439680e+02
   1429    1428    1433 1       1.20830000e+02    5.08272320e+02
   1430    1429    1431 1       1.07730000e+02    2.99574400e+02
   1430    1429    1432 1       1.07730000e+02    2.99574400e+02
   1431    1429    1432 1       1.07730000e+02    2.99574400e+02
   1433    1434    1435 1       1.20020000e+02    5.32790560e+02
   1433    1434    4299 1       1.20640000e+02    5.08439680e+02
   1433    4301    4299 1       1.16810000e+02    4.91368960e+02
   1433    4301    4302 1       1.14530000e+02    3.58485120e+02
   1434    1433    4301 1       1.20640000e+02    5.08439680e+02
   1434    4299    4300 1       1.14530000e+02    3.58485120e+02
   1434    4299    4301 1       1.16810000e+02    4.91368960e+02
   1435    1434    4299 1       1.20640000e+02    5.08439680e+02
   1435    1436    1437 1       1.10630000e+02    3.64928480e+02
   1435    1436    1438 1       1.10630000e+02    3.64928480e+02
   1435    1436    1439 1       1.10630000e+02    3.64928480e+02
   1436    1435    1434 1       1.20830000e+02    5.08272320e+02
   1437    1436    1438 1       1.07730000e+02    2.99574400e+02
   1437    1436    1439 1       1.07730000e+02    2.99574400e+02
   1438    1436    1439 1       1.07730000e+02    2.99574400e+02
   1440    1442    1443 1       1.12000000e+02    3.56811520e+02
   1440    1442    1444 1       1.03090000e+02    5.20322240e+02
   1441    1440    1442 1       1.13690000e+02    3.54217440e+02
   1442    1444    1445 1       1.11170000e+02    3.56895200e+02
   1442    1444    1446 1       1.11170000e+02    3.56895200e+02
   1443    1442    1444 1       1.11170000e+02    3.56895200e+02
   1445    1444    1446 1       1.07220000e+02    3.00494880e+02
   1447    1448    1449 1       1.19880000e+02    3.75723200e+02
   1450    1454    1455 1       1.10280000e+02    5.05761920e+02
   1450    1454    1459 1       1.13070000e+02    5.03000480e+02
   1450    1454    1483 1       1.13070000e+02    5.03000480e+02
   1451    1450    1452 1       1.07730000e+02    2.99574400e+02
   1451    1450    1453 1       1.07730000e+02    2.99574400e+02
   1451    1450    1454 1       1.10530000e+02    3.60326080e+02
   1452    1450    1453 1       1.07730000e+02    2.99574400e+02
   1452    1450    1454 1       1.10530000e+02    3.60326080e+02
   1453    1450    1454 1       1.10530000e+02    3.60326080e+02
   1454    1455    1456 1       1.10530000e+02    3.60326080e+02
   1454    1455    1457 1       1.10530000e+02    3.60326080e+02
   1454    1455    1458 1       1.10530000e+02    3.60326080e+02
   1454    1459    1460 1       1.10210000e+02    5.31033280e+02
   1454    1459    1480 1       1.21870000e+02    5.06012960e+02
   1454    1483    1482 1       1.10210000e+02    5.31033280e+02
   1454    1483    1484 1       1.21870000e+02    5.06012960e+02
   1455    1454    1459 1       1.13070000e+02    5.03000480e+02
   1455    1454    1483 1       1.13070000e+02    5.03000480e+02
   1456    1455    1457 1       1.07730000e+02    2.99574400e+02
   1456    1455    1458 1       1.07730000e+02    2.99574400e+02
   1457    1455    1458 1       1.07730000e+02    2.99574400e+02
   1459    1454    1483 1       1.12520000e+02    5.08021280e+02
   1459    1460    1461 1       1.18410000e+02    5.33794720e+02
   1459    1460    1482 1       1.21100000e+02    5.12958400e+02
   1459    1480    1479 1       1.20020000e+02    5.32790560e+02
   1459    1480    1481 1       1.19880000e+02    3.75723200e+02
   1460    1459    1480 1       1.20730000e+02    5.29945440e+02
   1460    1461    1462 1       1.19820000e+02    3.74300640e+02
   1460    1461    1463 1       1.20730000e+02    5.29945440e+02
   1460    1482    1483 1       1.21100000e+02    5.12958400e+02
   1460    1482    1517 1       1.21100000e+02    5.12958400e+02
   1461    1460    1482 1       1.21100000e+02    5.12958400e+02
   1461    1463    1464 1       1.20640000e+02    5.08439680e+02
   1461    1463    1479 1       1.20020000e+02    5.32790560e+02
   1462    1461    1463 1       1.19880000e+02    3.75723200e+02
   1463    1464    1465 1       1.14530000e+02    3.58485120e+02
   1463    1464    1466 1       1.16810000e+02    4.91368960e+02
   1463    1464    1474 1       1.24830000e+02    4.77729120e+02
   1463    1479    1466 1       1.20640000e+02    5.08439680e+02
   1463    1479    1480 1       1.20020000e+02    5.32790560e+02
   1464    1463    1479 1       1.20640000e+02    5.08439680e+02
   1464    1466    1467 1       1.14760000e+02    3.49364000e+02
   1464    1466    1468 1       1.22490000e+02    4.75804480e+02
   1464    1466    1479 1       1.16810000e+02    4.91368960e+02
   1464    1474    1472 1       9.60300000e+01    5.40070720e+02
   1464    1474    1475 1       1.12000000e+02    3.56811520e+02
   1464    1474    1476 1       1.03090000e+02    5.20322240e+02
   1465    1464    1466 1       1.14760000e+02    3.49364000e+02
   1465    1464    1474 1       1.13690000e+02    3.54217440e+02
   1466    1464    1474 1       1.22490000e+02    4.75804480e+02
   1466    1468    1469 1       1.12000000e+02    3.56811520e+02
   1466    1468    1470 1       9.60300000e+01    5.40070720e+02
   1466    1468    1476 1       1.03090000e+02    5.20322240e+02
   1466    1479    1480 1       1.20640000e+02    5.08439680e+02
   1467    1466    1468 1       1.13690000e+02    3.54217440e+02
   1467    1466    1479 1       1.14530000e+02    3.58485120e+02
   1468    1466    1479 1       1.24830000e+02    4.77729120e+02
   1468    1470    1471 1       1.13690000e+02    3.54217440e+02
   1468    1470    1472 1       1.22490000e+02    4.75804480e+02
   1468    1470    6057 1       1.24830000e+02    4.77729120e+02
   1468    1476    1474 1       1.03830000e+02    5.17477120e+02
   1468    1476    1477 1       1.11170000e+02    3.56895200e+02
   1468    1476    1478 1       1.11170000e+02    3.56895200e+02
   1469    1468    1476 1       1.11170000e+02    3.56895200e+02
   1470    1468    1469 1       1.12000000e+02    3.56811520e+02
   1470    1472    1473 1       1.14760000e+02    3.49364000e+02
   1472    1470    1471 1       1.14760000e+02    3.49364000e+02
   1472    1474    1475 1       1.12000000e+02    3.56811520e+02
   1474    1472    1470 1       1.22490000e+02    4.75804480e+02
   1474    1472    1473 1       1.13690000e+02    3.54217440e+02
   1474    1472    6056 1       1.24830000e+02    4.77729120e+02
   1474    1476    1477 1       1.11170000e+02    3.56895200e+02
   1474    1476    1478 1       1.11170000e+02    3.56895200e+02
   1475    1474    1476 1       1.11170000e+02    3.56895200e+02
   1476    1468    1470 1       1.03090000e+02    5.20322240e+02
   1476    1474    1472 1       1.03090000e+02    5.20322240e+02
   1477    1476    1478 1       1.07220000e+02    3.00494880e+02
   1479    1480    1481 1       1.19880000e+02    3.75723200e+02
   1482    1483    1484 1       1.20730000e+02    5.29945440e+02
   1482    1517    1516 1       1.20730000e+02    5.29945440e+02
   1482    1517    1518 1       1.19820000e+02    3.74300640e+02
   1483    1482    1517 1       1.18410000e+02    5.33794720e+02
   1483    1484    1485 1       1.19880000e+02    3.75723200e+02
   1483    1484    1486 1       1.20020000e+02    5.32790560e+02
   1484    1486    1487 1       1.20640000e+02    5.08439680e+02
   1484    1486    1516 1       1.20020000e+02    5.32790560e+02
   1485    1484    1486 1       1.19880000e+02    3.75723200e+02
   1486    1487    1488 1       1.14530000e+02    3.58485120e+02
   1486    1487    1489 1       1.16810000e+02    4.91368960e+02
   1486    1487    1511 1       1.24830000e+02    4.77729120e+02
   1486    1516    1489 1       1.20640000e+02    5.08439680e+02
   1486    1516    1517 1       1.20020000e+02    5.32790560e+02
   1487    1486    1516 1       1.20640000e+02    5.08439680e+02
   1487    1489    1490 1       1.14760000e+02    3.49364000e+02
   1487    1489    1491 1       1.22490000e+02    4.75804480e+02
   1487    1489    1516 1       1.16810000e+02    4.91368960e+02
   1487    1511    1509 1       9.60300000e+01    5.40070720e+02
   1487    1511    1512 1       1.12000000e+02    3.56811520e+02
   1487    1511    1513 1       1.03090000e+02    5.20322240e+02
   1488    1487    1489 1       1.14760000e+02    3.49364000e+02
   1488    1487    1511 1       1.13690000e+02    3.54217440e+02
   1489    1487    1511 1       1.22490000e+02    4.75804480e+02
   1489    1491    1492 1       1.12000000e+02    3.56811520e+02
   1489    1491    1493 1       9.60300000e+01    5.40070720e+02
   1489    1491    1513 1       1.03090000e+02    5.20322240e+02
   1489    1516    1517 1       1.20640000e+02    5.08439680e+02
   1490    1489    1491 1       1.13690000e+02    3.54217440e+02
   1490    1489    1516 1       1.14530000e+02    3.58485120e+02
   1491    1489    1516 1       1.24830000e+02    4.77729120e+02
   1491    1493    1494 1       1.13690000e+02    3.54217440e+02
   1491    1493    1495 1       1.24830000e+02    4.77729120e+02
   1491    1493    1509 1       1.22490000e+02    4.75804480e+02
   1491    1513    1511 1       1.03830000e+02    5.17477120e+02
   1491    1513    1514 1       1.11170000e+02    3.56895200e+02
   1491    1513    1515 1       1.11170000e+02    3.56895200e+02
   1492    1491    1493 1       1.12000000e+02    3.56811520e+02
   1492    1491    1513 1       1.11170000e+02    3.56895200e+02
   1493    1491    1513 1       1.03090000e+02    5.20322240e+02
   1493    1495    1496 1       1.20640000e+02    5.08439680e+02
   1493    1495    1504 1       1.20640000e+02    5.08439680e+02
   1493    1509    1496 1       1.16810000e+02    4.91368960e+02
   1493    1509    1510 1       1.14760000e+02    3.49364000e+02
   1493    1509    1511 1       1.22490000e+02    4.75804480e+02
   1494    1493    1495 1       1.14530000e+02    3.58485120e+02
   1494    1493    1509 1       1.14760000e+02    3.49364000e+02
   1495    1493    1509 1       1.16810000e+02    4.91368960e+02
   1495    1496    1497 1       1.20020000e+02    5.32790560e+02
   1495    1496    1509 1       1.20640000e+02    5.08439680e+02
   1495    1504    1503 1       1.20020000e+02    5.32790560e+02
   1495    1504    1505 1       1.20830000e+02    5.08272320e+02
   1496    1495    1504 1       1.20020000e+02    5.32790560e+02
   1496    1497    1498 1       1.20830000e+02    5.08272320e+02
   1496    1497    1502 1       1.20020000e+02    5.32790560e+02
   1496    1509    1510 1       1.14530000e+02    3.58485120e+02
   1496    1509    1511 1       1.24830000e+02    4.77729120e+02
   1497    1496    1509 1       1.20640000e+02    5.08439680e+02
   1497    1498    1499 1       1.10630000e+02    3.64928480e+02
   1497    1498    1500 1       1.10630000e+02    3.64928480e+02
   1497    1498    1501 1       1.10630000e+02    3.64928480e+02
   1497    1502    1503 1       1.20020000e+02    5.32790560e+02
   1497    1502    6233 1       1.20640000e+02    5.08439680e+02
   1498    1497    1502 1       1.20830000e+02    5.08272320e+02
   1499    1498    1500 1       1.07730000e+02    2.99574400e+02
   1499    1498    1501 1       1.07730000e+02    2.99574400e+02
   1500    1498    1501 1       1.07730000e+02    2.99574400e+02
   1502    1503    1504 1       1.20020000e+02    5.32790560e+02
   1502    1503    6231 1       1.20640000e+02    5.08439680e+02
   1502    6233    6231 1       1.16810000e+02    4.91368960e+02
   1502    6233    6234 1       1.14530000e+02    3.58485120e+02
   1503    1502    6233 1       1.20640000e+02    5.08439680e+02
   1503    6231    6232 1       1.14530000e+02    3.58485120e+02
   1503    6231    6233 1       1.16810000e+02    4.91368960e+02
   1504    1503    6231 1       1.20640000e+02    5.08439680e+02
   1504    1505    1506 1       1.10630000e+02    3.64928480e+02
   1504    1505    1507 1       1.10630000e+02    3.64928480e+02
   1504    1505    1508 1       1.10630000e+02    3.64928480e+02
   1505    1504    1503 1       1.20830000e+02    5.08272320e+02
   1506    1505    1507 1       1.07730000e+02    2.99574400e+02
   1506    1505    1508 1       1.07730000e+02    2.99574400e+02
   1507    1505    1508 1       1.07730000e+02    2.99574400e+02
   1509    1511    1512 1       1.12000000e+02    3.56811520e+02
   1509    1511    1513 1       1.03090000e+02    5.20322240e+02
   1510    1509    1511 1       1.13690000e+02    3.54217440e+02
   1511    1513    1514 1       1.11170000e+02    3.56895200e+02
   1511    1513    1515 1       1.11170000e+02    3.56895200e+02
   1512    1511    1513 1       1.11170000e+02    3.56895200e+02
   1514    1513    1515 1       1.07220000e+02    3.00494880e+02
   1516    1517    1518 1       1.19880000e+02    3.75723200e+02
   1519    1523    1524 1       1.10280000e+02    5.05761920e+02
   1519    1523    1528 1       1.13070000e+02    5.03000480e+02
   1519    1523    1552 1       1.13070000e+02    5.03000480e+02
   1520    1519    1521 1       1.07730000e+02    2.99574400e+02
   1520    1519    1522 1       1.07730000e+02    2.99574400e+02
   1520    1519    1523 1       1.10530000e+02    3.60326080e+02
   1521    1519    1522 1       1.07730000e+02    2.99574400e+02
   1521    1519    1523 1       1.10530000e+02    3.60326080e+02
   1522    1519    1523 1       1.10530000e+02    3.60326080e+02
   1523    1524    1525 1       1.10530000e+02    3.60326080e+02
   1523    1524    1526 1       1.10530000e+02    3.60326080e+02
   1523    1524    1527 1       1.10530000e+02    3.60326080e+02
   1523    1528    1529 1       1.10210000e+02    5.31033280e+02
   1523    1528    1549 1       1.21870000e+02    5.06012960e+02
   1523    1552    1551 1       1.10210000e+02    5.31033280e+02
   1523    1552    1553 1       1.21870000e+02    5.06012960e+02
   1524    1523    1528 1       1.13070000e+02    5.03000480e+02
   1524    1523    1552 1       1.13070000e+02    5.03000480e+02
   1525    1524    1526 1       1.07730000e+02    2.99574400e+02
   1525    1524    1527 1       1.07730000e+02    2.99574400e+02
   1526    1524    1527 1       1.07730000e+02    2.99574400e+02
   1528    1523    1552 1       1.12520000e+02    5.08021280e+02
   1528    1529    1530 1       1.18410000e+02    5.33794720e+02
   1528    1529    1551 1       1.21100000e+02    5.12958400e+02
   1528    1549    1548 1       1.20020000e+02    5.32790560e+02
   1528    1549    1550 1       1.19880000e+02    3.75723200e+02
   1529    1528    1549 1       1.20730000e+02    5.29945440e+02
   1529    1530    1531 1       1.19820000e+02    3.74300640e+02
   1529    1530    1532 1       1.20730000e+02    5.29945440e+02
   1529    1551    1552 1       1.21100000e+02    5.12958400e+02
   1529    1551    1586 1       1.21100000e+02    5.12958400e+02
   1530    1529    1551 1       1.21100000e+02    5.12958400e+02
   1530    1532    1533 1       1.20640000e+02    5.08439680e+02
   1530    1532    1548 1       1.20020000e+02    5.32790560e+02
   1531    1530    1532 1       1.19880000e+02    3.75723200e+02
   1532    1533    1534 1       1.14530000e+02    3.58485120e+02
   1532    1533    1535 1       1.16810000e+02    4.91368960e+02
   1532    1533    1543 1       1.24830000e+02    4.77729120e+02
   1532    1548    1535 1       1.20640000e+02    5.08439680e+02
   1532    1548    1549 1       1.20020000e+02    5.32790560e+02
   1533    1532    1548 1       1.20640000e+02    5.08439680e+02
   1533    1535    1536 1       1.14760000e+02    3.49364000e+02
   1533    1535    1537 1       1.22490000e+02    4.75804480e+02
   1533    1535    1548 1       1.16810000e+02    4.91368960e+02
   1533    1543    1541 1       9.60300000e+01    5.40070720e+02
   1533    1543    1544 1       1.12000000e+02    3.56811520e+02
   1533    1543    1545 1       1.03090000e+02    5.20322240e+02
   1534    1533    1535 1       1.14760000e+02    3.49364000e+02
   1534    1533    1543 1       1.13690000e+02    3.54217440e+02
   1535    1533    1543 1       1.22490000e+02    4.75804480e+02
   1535    1537    1538 1       1.12000000e+02    3.56811520e+02
   1535    1537    1539 1       9.60300000e+01    5.40070720e+02
   1535    1537    1545 1       1.03090000e+02    5.20322240e+02
   1535    1548    1549 1       1.20640000e+02    5.08439680e+02
   1536    1535    1537 1       1.13690000e+02    3.54217440e+02
   1536    1535    1548 1       1.14530000e+02    3.58485120e+02
   1537    1535    1548 1       1.24830000e+02    4.77729120e+02
   1537    1539    1540 1       1.13690000e+02    3.54217440e+02
   1537    1539    1541 1       1.22490000e+02    4.75804480e+02
   1537    1539    5228 1       1.24830000e+02    4.77729120e+02
   1537    1545    1543 1       1.03830000e+02    5.17477120e+02
   1537    1545    1546 1       1.11170000e+02    3.56895200e+02
   1537    1545    1547 1       1.11170000e+02    3.56895200e+02
   1538    1537    1545 1       1.11170000e+02    3.56895200e+02
   1539    1537    1538 1       1.12000000e+02    3.56811520e+02
   1539    1541    1542 1       1.14760000e+02    3.49364000e+02
   1541    1539    1540 1       1.14760000e+02    3.49364000e+02
   1541    1543    1544 1       1.12000000e+02    3.56811520e+02
   1543    1541    1539 1       1.22490000e+02    4.75804480e+02
   1543    1541    1542 1       1.13690000e+02    3.54217440e+02
   1543    1541    5229 1       1.24830000e+02    4.77729120e+02
   1543    1545    1546 1       1.11170000e+02    3.56895200e+02
   1543    1545    1547 1       1.11170000e+02    3.56895200e+02
   1544    1543    1545 1       1.11170000e+02    3.56895200e+02
   1545    1537    1539 1       1.03090000e+02    5.20322240e+02
   1545    1543    1541 1       1.03090000e+02    5.20322240e+02
   1546    1545    1547 1       1.07220000e+02    3.00494880e+02
   1548    1549    1550 1       1.19880000e+02    3.75723200e+02
   1551    1552    1553 1       1.20730000e+02    5.29945440e+02
   1551    1586    1585 1       1.20730000e+02    5.29945440e+02
   1551    1586    1587 1       1.19820000e+02    3.74300640e+02
   1552    1551    1586 1       1.18410000e+02    5.33794720e+02
   1552    1553    1554 1       1.19880000e+02    3.75723200e+02
   1552    1553    1555 1       1.20020000e+02    5.32790560e+02
   1553    1555    1556 1       1.20640000e+02    5.08439680e+02
   1553    1555    1585 1       1.20020000e+02    5.32790560e+02
   1554    1553    1555 1       1.19880000e+02    3.75723200e+02
   1555    1556    1557 1       1.14530000e+02    3.58485120e+02
   1555    1556    1558 1       1.16810000e+02    4.91368960e+02
   1555    1556    1580 1       1.24830000e+02    4.77729120e+02
   1555    1585    1558 1       1.20640000e+02    5.08439680e+02
   1555    1585    1586 1       1.20020000e+02    5.32790560e+02
   1556    1555    1585 1       1.20640000e+02    5.08439680e+02
   1556    1558    1559 1       1.14760000e+02    3.49364000e+02
   1556    1558    1560 1       1.22490000e+02    4.75804480e+02
   1556    1558    1585 1       1.16810000e+02    4.91368960e+02
   1556    1580    1578 1       9.60300000e+01    5.40070720e+02
   1556    1580    1581 1       1.12000000e+02    3.56811520e+02
   1556    1580    1582 1       1.03090000e+02    5.20322240e+02
   1557    1556    1558 1       1.14760000e+02    3.49364000e+02
   1557    1556    1580 1       1.13690000e+02    3.54217440e+02
   1558    1556    1580 1       1.22490000e+02    4.75804480e+02
   1558    1560    1561 1       1.12000000e+02    3.56811520e+02
   1558    1560    1562 1       9.60300000e+01    5.40070720e+02
   1558    1560    1582 1       1.03090000e+02    5.20322240e+02
   1558    1585    1586 1       1.20640000e+02    5.08439680e+02
   1559    1558    1560 1       1.13690000e+02    3.54217440e+02
   1559    1558    1585 1       1.14530000e+02    3.58485120e+02
   1560    1558    1585 1       1.24830000e+02    4.77729120e+02
   1560    1562    1563 1       1.13690000e+02    3.54217440e+02
   1560    1562    1564 1       1.24830000e+02    4.77729120e+02
   1560    1562    1578 1       1.22490000e+02    4.75804480e+02
   1560    1582    1580 1       1.03830000e+02    5.17477120e+02
   1560    1582    1583 1       1.11170000e+02    3.56895200e+02
   1560    1582    1584 1       1.11170000e+02    3.56895200e+02
   1561    1560    1562 1       1.12000000e+02    3.56811520e+02
   1561    1560    1582 1       1.11170000e+02    3.56895200e+02
   1562    1560    1582 1       1.03090000e+02    5.20322240e+02
   1562    1564    1565 1       1.20640000e+02    5.08439680e+02
   1562    1564    1573 1       1.20640000e+02    5.08439680e+02
   1562    1578    1565 1       1.16810000e+02    4.91368960e+02
   1562    1578    1579 1       1.14760000e+02    3.49364000e+02
   1562    1578    1580 1       1.22490000e+02    4.75804480e+02
   1563    1562    1564 1       1.14530000e+02    3.58485120e+02
   1563    1562    1578 1       1.14760000e+02    3.49364000e+02
   1564    1562    1578 1       1.16810000e+02    4.91368960e+02
   1564    1565    1566 1       1.20020000e+02    5.32790560e+02
   1564    1565    1578 1       1.20640000e+02    5.08439680e+02
   1564    1573    1572 1       1.20020000e+02    5.32790560e+02
   1564    1573    1574 1       1.20830000e+02    5.08272320e+02
   1565    1564    1573 1       1.20020000e+02    5.32790560e+02
   1565    1566    1567 1       1.20830000e+02    5.08272320e+02
   1565    1566    1571 1       1.20020000e+02    5.32790560e+02
   1565    1578    1579 1       1.14530000e+02    3.58485120e+02
   1565    1578    1580 1       1.24830000e+02    4.77729120e+02
   1566    1565    1578 1       1.20640000e+02    5.08439680e+02
   1566    1567    1568 1       1.10630000e+02    3.64928480e+02
   1566    1567    1569 1       1.10630000e+02    3.64928480e+02
   1566    1567    1570 1       1.10630000e+02    3.64928480e+02
   1566    1571    1572 1       1.20020000e+02    5.32790560e+02
   1566    1571    2022 1       1.20640000e+02    5.08439680e+02
   1567    1566    1571 1       1.20830000e+02    5.08272320e+02
   1568    1567    1569 1       1.07730000e+02    2.99574400e+02
   1568    1567    1570 1       1.07730000e+02    2.99574400e+02
   1569    1567    1570 1       1.07730000e+02    2.99574400e+02
   1571    1572    1573 1       1.20020000e+02    5.32790560e+02
   1571    1572    2024 1       1.20640000e+02    5.08439680e+02
   1571    2022    2023 1       1.14530000e+02    3.58485120e+02
   1571    2022    2024 1       1.16810000e+02    4.91368960e+02
   1572    1571    2022 1       1.20640000e+02    5.08439680e+02
   1572    2024    2022 1       1.16810000e+02    4.91368960e+02
   1572    2024    2025 1       1.14530000e+02    3.58485120e+02
   1573    1572    2024 1       1.20640000e+02    5.08439680e+02
   1573    1574    1575 1       1.10630000e+02    3.64928480e+02
   1573    1574    1576 1       1.10630000e+02    3.64928480e+02
   1573    1574    1577 1       1.10630000e+02    3.64928480e+02
   1574    1573    1572 1       1.20830000e+02    5.08272320e+02
   1575    1574    1576 1       1.07730000e+02    2.99574400e+02
   1575    1574    1577 1       1.07730000e+02    2.99574400e+02
   1576    1574    1577 1       1.07730000e+02    2.99574400e+02
   1578    1580    1581 1       1.12000000e+02    3.56811520e+02
   1578    1580    1582 1       1.03090000e+02    5.20322240e+02
   1579    1578    1580 1       1.13690000e+02    3.54217440e+02
   1580    1582    1583 1       1.11170000e+02    3.56895200e+02
   1580    1582    1584 1       1.11170000e+02    3.56895200e+02
   1581    1580    1582 1       1.11170000e+02    3.56895200e+02
   1583    1582    1584 1       1.07220000e+02    3.00494880e+02
   1585    1586    1587 1       1.19880000e+02    3.75723200e+02
   1588    1592    1593 1       1.10280000e+02    5.05761920e+02
   1588    1592    1597 1       1.13070000e+02    5.03000480e+02
   1588    1592    1621 1       1.13070000e+02    5.03000480e+02
   1589    1588    1590 1       1.07730000e+02    2.99574400e+02
   1589    1588    1591 1       1.07730000e+02    2.99574400e+02
   1589    1588    1592 1       1.10530000e+02    3.60326080e+02
   1590    1588    1591 1       1.07730000e+02    2.99574400e+02
   1590    1588    1592 1       1.10530000e+02    3.60326080e+02
   1591    1588    1592 1       1.10530000e+02    3.60326080e+02
   1592    1593    1594 1       1.10530000e+02    3.60326080e+02
   1592    1593    1595 1       1.10530000e+02    3.60326080e+02
   1592    1593    1596 1       1.10530000e+02    3.60326080e+02
   1592    1597    1598 1       1.10210000e+02    5.31033280e+02
   1592    1597    1618 1       1.21870000e+02    5.06012960e+02
   1592    1621    1620 1       1.10210000e+02    5.31033280e+02
   1592    1621    1622 1       1.21870000e+02    5.06012960e+02
   1593    1592    1597 1       1.13070000e+02    5.03000480e+02
   1593    1592    1621 1       1.13070000e+02    5.03000480e+02
   1594    1593    1595 1       1.07730000e+02    2.99574400e+02
   1594    1593    1596 1       1.07730000e+02    2.99574400e+02
   1595    1593    1596 1       1.07730000e+02    2.99574400e+02
   1597    1592    1621 1       1.12520000e+02    5.08021280e+02
   1597    1598    1599 1       1.18410000e+02    5.33794720e+02
   1597    1598    1620 1       1.21100000e+02    5.12958400e+02
   1597    1618    1617 1       1.20020000e+02    5.32790560e+02
   1597    1618    1619 1       1.19880000e+02    3.75723200e+02
   1598    1597    1618 1       1.20730000e+02    5.29945440e+02
   1598    1599    1600 1       1.19820000e+02    3.74300640e+02
   1598    1599    1601 1       1.20730000e+02    5.29945440e+02
   1598    1620    1621 1       1.21100000e+02    5.12958400e+02
   1598    1620    1655 1       1.21100000e+02    5.12958400e+02
   1599    1598    1620 1       1.21100000e+02    5.12958400e+02
   1599    1601    1602 1       1.20640000e+02    5.08439680e+02
   1599    1601    1617 1       1.20020000e+02    5.32790560e+02
   1600    1599    1601 1       1.19880000e+02    3.75723200e+02
   1601    1602    1603 1       1.14530000e+02    3.58485120e+02
   1601    1602    1604 1       1.16810000e+02    4.91368960e+02
   1601    1602    1612 1       1.24830000e+02    4.77729120e+02
   1601    1617    1604 1       1.20640000e+02    5.08439680e+02
   1601    1617    1618 1       1.20020000e+02    5.32790560e+02
   1602    1601    1617 1       1.20640000e+02    5.08439680e+02
   1602    1604    1605 1       1.14760000e+02    3.49364000e+02
   1602    1604    1606 1       1.22490000e+02    4.75804480e+02
   1602    1604    1617 1       1.16810000e+02    4.91368960e+02
   1602    1612    1610 1       9.60300000e+01    5.40070720e+02
   1602    1612    1613 1       1.12000000e+02    3.56811520e+02
   1602    1612    1614 1       1.03090000e+02    5.20322240e+02
   1603    1602    1604 1       1.14760000e+02    3.49364000e+02
   1603    1602    1612 1       1.13690000e+02    3.54217440e+02
   1604    1602    1612 1       1.22490000e+02    4.75804480e+02
   1604    1606    1607 1       1.12000000e+02    3.56811520e+02
   1604    1606    1608 1       9.60300000e+01    5.40070720e+02
   1604    1606    1614 1       1.03090000e+02    5.20322240e+02
   1604    1617    1618 1       1.20640000e+02    5.08439680e+02
   1605    1604    1606 1       1.13690000e+02    3.54217440e+02
   1605    1604    1617 1       1.14530000e+02    3.58485120e+02
   1606    1604    1617 1       1.24830000e+02    4.77729120e+02
   1606    1608    1609 1       1.13690000e+02    3.54217440e+02
   1606    1608    1610 1       1.22490000e+02    4.75804480e+02
   1606    1608    1847 1       1.24830000e+02    4.77729120e+02
   1606    1614    1612 1       1.03830000e+02    5.17477120e+02
   1606    1614    1615 1       1.11170000e+02    3.56895200e+02
   1606    1614    1616 1       1.11170000e+02    3.56895200e+02
   1607    1606    1614 1       1.11170000e+02    3.56895200e+02
   1608    1606    1607 1       1.12000000e+02    3.56811520e+02
   1608    1610    1611 1       1.14760000e+02    3.49364000e+02
   1610    1608    1609 1       1.14760000e+02    3.49364000e+02
   1610    1612    1613 1       1.12000000e+02    3.56811520e+02
   1612    1610    1608 1       1.22490000e+02    4.75804480e+02
   1612    1610    1611 1       1.13690000e+02    3.54217440e+02
   1612    1610    1848 1       1.24830000e+02    4.77729120e+02
   1612    1614    1615 1       1.11170000e+02    3.56895200e+02
   1612    1614    1616 1       1.11170000e+02    3.56895200e+02
   1613    1612    1614 1       1.11170000e+02    3.56895200e+02
   1614    1606    1608 1       1.03090000e+02    5.20322240e+02
   1614    1612    1610 1       1.03090000e+02    5.20322240e+02
   1615    1614    1616 1       1.07220000e+02    3.00494880e+02
   1617    1618    1619 1       1.19880000e+02    3.75723200e+02
   1620    1621    1622 1       1.20730000e+02    5.29945440e+02
   1620    1655    1654 1       1.20730000e+02    5.29945440e+02
   1620    1655    1656 1       1.19820000e+02    3.74300640e+02
   1621    1620    1655 1       1.18410000e+02    5.33794720e+02
   1621    1622    1623 1       1.19880000e+02    3.75723200e+02
   1621    1622    1624 1       1.20020000e+02    5.32790560e+02
   1622    1624    1625 1       1.20640000e+02    5.08439680e+02
   1622    1624    1654 1       1.20020000e+02    5.32790560e+02
   1623    1622    1624 1       1.19880000e+02    3.75723200e+02
   1624    1625    1626 1       1.14530000e+02    3.58485120e+02
   1624    1625    1627 1       1.16810000e+02    4.91368960e+02
   1624    1625    1649 1       1.24830000e+02    4.77729120e+02
   1624    1654    1627 1       1.20640000e+02    5.08439680e+02
   1624    1654    1655 1       1.20020000e+02    5.32790560e+02
   1625    1624    1654 1       1.20640000e+02    5.08439680e+02
   1625    1627    1628 1       1.14760000e+02    3.49364000e+02
   1625    1627    1629 1       1.22490000e+02    4.75804480e+02
   1625    1627    1654 1       1.16810000e+02    4.91368960e+02
   1625    1649    1647 1       9.60300000e+01    5.40070720e+02
   1625    1649    1650 1       1.12000000e+02    3.56811520e+02
   1625    1649    1651 1       1.03090000e+02    5.20322240e+02
   1626    1625    1627 1       1.14760000e+02    3.49364000e+02
   1626    1625    1649 1       1.13690000e+02    3.54217440e+02
   1627    1625    1649 1       1.22490000e+02    4.75804480e+02
   1627    1629    1630 1       1.12000000e+02    3.56811520e+02
   1627    1629    1631 1       9.60300000e+01    5.40070720e+02
   1627    1629    1651 1       1.03090000e+02    5.20322240e+02
   1627    1654    1655 1       1.20640000e+02    5.08439680e+02
   1628    1627    1629 1       1.13690000e+02    3.54217440e+02
   1628    1627    1654 1       1.14530000e+02    3.58485120e+02
   1629    1627    1654 1       1.24830000e+02    4.77729120e+02
   1629    1631    1632 1       1.13690000e+02    3.54217440e+02
   1629    1631    1633 1       1.24830000e+02    4.77729120e+02
   1629    1631    1647 1       1.22490000e+02    4.75804480e+02
   1629    1651    1649 1       1.03830000e+02    5.17477120e+02
   1629    1651    1652 1       1.11170000e+02    3.56895200e+02
   1629    1651    1653 1       1.11170000e+02    3.56895200e+02
   1630    1629    1631 1       1.12000000e+02    3.56811520e+02
   1630    1629    1651 1       1.11170000e+02    3.56895200e+02
   1631    1629    1651 1       1.03090000e+02    5.20322240e+02
   1631    1633    1634 1       1.20640000e+02    5.08439680e+02
   1631    1633    1642 1       1.20640000e+02    5.08439680e+02
   1631    1647    1634 1       1.16810000e+02    4.91368960e+02
   1631    1647    1648 1       1.14760000e+02    3.49364000e+02
   1631    1647    1649 1       1.22490000e+02    4.75804480e+02
   1632    1631    1633 1       1.14530000e+02    3.58485120e+02
   1632    1631    1647 1       1.14760000e+02    3.49364000e+02
   1633    1631    1647 1       1.16810000e+02    4.91368960e+02
   1633    1634    1635 1       1.20020000e+02    5.32790560e+02
   1633    1634    1647 1       1.20640000e+02    5.08439680e+02
   1633    1642    1641 1       1.20020000e+02    5.32790560e+02
   1633    1642    1643 1       1.20830000e+02    5.08272320e+02
   1634    1633    1642 1       1.20020000e+02    5.32790560e+02
   1634    1635    1636 1       1.20830000e+02    5.08272320e+02
   1634    1635    1640 1       1.20020000e+02    5.32790560e+02
   1634    1647    1648 1       1.14530000e+02    3.58485120e+02
   1634    1647    1649 1       1.24830000e+02    4.77729120e+02
   1635    1634    1647 1       1.20640000e+02    5.08439680e+02
   1635    1636    1637 1       1.10630000e+02    3.64928480e+02
   1635    1636    1638 1       1.10630000e+02    3.64928480e+02
   1635    1636    1639 1       1.10630000e+02    3.64928480e+02
   1635    1640    1641 1       1.20020000e+02    5.32790560e+02
   1635    1640    4920 1       1.20640000e+02    5.08439680e+02
   1636    1635    1640 1       1.20830000e+02    5.08272320e+02
   1637    1636    1638 1       1.07730000e+02    2.99574400e+02
   1637    1636    1639 1       1.07730000e+02    2.99574400e+02
   1638    1636    1639 1       1.07730000e+02    2.99574400e+02
   1640    1641    1642 1       1.20020000e+02    5.32790560e+02
   1640    1641    4922 1       1.20640000e+02    5.08439680e+02
   1640    4920    4921 1       1.14530000e+02    3.58485120e+02
   1640    4920    4922 1       1.16810000e+02    4.91368960e+02
   1641    1640    4920 1       1.20640000e+02    5.08439680e+02
   1641    4922    4920 1       1.16810000e+02    4.91368960e+02
   1641    4922    4923 1       1.14530000e+02    3.58485120e+02
   1642    1641    4922 1       1.20640000e+02    5.08439680e+02
   1642    1643    1644 1       1.10630000e+02    3.64928480e+02
   1642    1643    1645 1       1.10630000e+02    3.64928480e+02
   1642    1643    1646 1       1.10630000e+02    3.64928480e+02
   1643    1642    1641 1       1.20830000e+02    5.08272320e+02
   1644    1643    1645 1       1.07730000e+02    2.99574400e+02
   1644    1643    1646 1       1.07730000e+02    2.99574400e+02
   1645    1643    1646 1       1.07730000e+02    2.99574400e+02
   1647    1649    1650 1       1.12000000e+02    3.56811520e+02
   1647    1649    1651 1       1.03090000e+02    5.20322240e+02
   1648    1647    1649 1       1.13690000e+02    3.54217440e+02
   1649    1651    1652 1       1.11170000e+02    3.56895200e+02
   1649    1651    1653 1       1.11170000e+02    3.56895200e+02
   1650    1649    1651 1       1.11170000e+02    3.56895200e+02
   1652    1651    1653 1       1.07220000e+02    3.00494880e+02
   1654    1655    1656 1       1.19880000e+02    3.75723200e+02
   1657    1661    1662 1       1.10280000e+02    5.05761920e+02
   1657    1661    1666 1       1.13070000e+02    5.03000480e+02
   1657    1661    1690 1       1.13070000e+02    5.03000480e+02
   1658    1657    1659 1       1.07730000e+02    2.99574400e+02
   1658    1657    1660 1       1.07730000e+02    2.99574400e+02
   1658    1657    1661 1       1.10530000e+02    3.60326080e+02
   1659    1657    1660 1       1.07730000e+02    2.99574400e+02
   1659    1657    1661 1       1.10530000e+02    3.60326080e+02
   1660    1657    1661 1       1.10530000e+02    3.60326080e+02
   1661    1662    1663 1       1.10530000e+02    3.60326080e+02
   1661    1662    1664 1       1.10530000e+02    3.60326080e+02
   1661    1662    1665 1       1.10530000e+02    3.60326080e+02
   1661    1666    1667 1       1.10210000e+02    5.31033280e+02
   1661    1666    1687 1       1.21870000e+02    5.06012960e+02
   1661    1690    1689 1       1.10210000e+02    5.31033280e+02
   1661    1690    1691 1       1.21870000e+02    5.06012960e+02
   1662    1661    1666 1       1.13070000e+02    5.03000480e+02
   1662    1661    1690 1       1.13070000e+02    5.03000480e+02
   1663    1662    1664 1       1.07730000e+02    2.99574400e+02
   1663    1662    1665 1       1.07730000e+02    2.99574400e+02
   1664    1662    1665 1       1.07730000e+02    2.99574400e+02
   1666    1661    1690 1       1.12520000e+02    5.08021280e+02
   1666    1667    1668 1       1.18410000e+02    5.33794720e+02
   1666    1667    1689 1       1.21100000e+02    5.12958400e+02
   1666    1687    1686 1       1.20020000e+02    5.32790560e+02
   1666    1687    1688 1       1.19880000e+02    3.75723200e+02
   1667    1666    1687 1       1.20730000e+02    5.29945440e+02
   1667    1668    1669 1       1.19820000e+02    3.74300640e+02
   1667    1668    1670 1       1.20730000e+02    5.29945440e+02
   1667    1689    1690 1       1.21100000e+02    5.12958400e+02
   1667    1689    1724 1       1.21100000e+02    5.12958400e+02
   1668    1667    1689 1       1.21100000e+02    5.12958400e+02
   1668    1670    1671 1       1.20640000e+02    5.08439680e+02
   1668    1670    1686 1       1.20020000e+02    5.32790560e+02
   1669    1668    1670 1       1.19880000e+02    3.75723200e+02
   1670    1671    1672 1       1.14530000e+02    3.58485120e+02
   1670    1671    1673 1       1.16810000e+02    4.91368960e+02
   1670    1671    1681 1       1.24830000e+02    4.77729120e+02
   1670    1686    1673 1       1.20640000e+02    5.08439680e+02
   1670    1686    1687 1       1.20020000e+02    5.32790560e+02
   1671    1670    1686 1       1.20640000e+02    5.08439680e+02
   1671    1673    1674 1       1.14760000e+02    3.49364000e+02
   1671    1673    1675 1       1.22490000e+02    4.75804480e+02
   1671    1673    1686 1       1.16810000e+02    4.91368960e+02
   1671    1681    1679 1       9.60300000e+01    5.40070720e+02
   1671    1681    1682 1       1.12000000e+02    3.56811520e+02
   1671    1681    1683 1       1.03090000e+02    5.20322240e+02
   1672    1671    1673 1       1.14760000e+02    3.49364000e+02
   1672    1671    1681 1       1.13690000e+02    3.54217440e+02
   1673    1671    1681 1       1.22490000e+02    4.75804480e+02
   1673    1675    1676 1       1.12000000e+02    3.56811520e+02
   1673    1675    1677 1       9.60300000e+01    5.40070720e+02
   1673    1675    1683 1       1.03090000e+02    5.20322240e+02
   1673    1686    1687 1       1.20640000e+02    5.08439680e+02
   1674    1673    1675 1       1.13690000e+02    3.54217440e+02
   1674    1673    1686 1       1.14530000e+02    3.58485120e+02
   1675    1673    1686 1       1.24830000e+02    4.77729120e+02
   1675    1677    1678 1       1.13690000e+02    3.54217440e+02
   1675    1677    1679 1       1.22490000e+02    4.75804480e+02
   1675    1677    6471 1       1.24830000e+02    4.77729120e+02
   1675    1683    1681 1       1.03830000e+02    5.17477120e+02
   1675    1683    1684 1       1.11170000e+02    3.56895200e+02
   1675    1683    1685 1       1.11170000e+02    3.56895200e+02
   1676    1675    1683 1       1.11170000e+02    3.56895200e+02
   1677    1675    1676 1       1.12000000e+02    3.56811520e+02
   1677    1679    1680 1       1.14760000e+02    3.49364000e+02
   1679    1677    1678 1       1.14760000e+02    3.49364000e+02
   1679    1681    1682 1       1.12000000e+02    3.56811520e+02
   1681    1679    1677 1       1.22490000e+02    4.75804480e+02
   1681    1679    1680 1       1.13690000e+02    3.54217440e+02
   1681    1679    6470 1       1.24830000e+02    4.77729120e+02
   1681    1683    1684 1       1.11170000e+02    3.56895200e+02
   1681    1683    1685 1       1.11170000e+02    3.56895200e+02
   1682    1681    1683 1       1.11170000e+02    3.56895200e+02
   1683    1675    1677 1       1.03090000e+02    5.20322240e+02
   1683    1681    1679 1       1.03090000e+02    5.20322240e+02
   1684    1683    1685 1       1.07220000e+02    3.00494880e+02
   1686    1687    1688 1       1.19880000e+02    3.75723200e+02
   1689    1690    1691 1       1.20730000e+02    5.29945440e+02
   1689    1724    1723 1       1.20730000e+02    5.29945440e+02
   1689    1724    1725 1       1.19820000e+02    3.74300640e+02
   1690    1689    1724 1       1.18410000e+02    5.33794720e+02
   1690    1691    1692 1       1.19880000e+02    3.75723200e+02
   1690    1691    1693 1       1.20020000e+02    5.32790560e+02
   1691    1693    1694 1       1.20640000e+02    5.08439680e+02
   1691    1693    1723 1       1.20020000e+02    5.32790560e+02
   1692    1691    1693 1       1.19880000e+02    3.75723200e+02
   1693    1694    1695 1       1.14530000e+02    3.58485120e+02
   1693    1694    1696 1       1.16810000e+02    4.91368960e+02
   1693    1694    1718 1       1.24830000e+02    4.77729120e+02
   1693    1723    1696 1       1.20640000e+02    5.08439680e+02
   1693    1723    1724 1       1.20020000e+02    5.32790560e+02
   1694    1693    1723 1       1.20640000e+02    5.08439680e+02
   1694    1696    1697 1       1.14760000e+02    3.49364000e+02
   1694    1696    1698 1       1.22490000e+02    4.75804480e+02
   1694    1696    1723 1       1.16810000e+02    4.91368960e+02
   1694    1718    1716 1       9.60300000e+01    5.40070720e+02
   1694    1718    1719 1       1.12000000e+02    3.56811520e+02
   1694    1718    1720 1       1.03090000e+02    5.20322240e+02
   1695    1694    1696 1       1.14760000e+02    3.49364000e+02
   1695    1694    1718 1       1.13690000e+02    3.54217440e+02
   1696    1694    1718 1       1.22490000e+02    4.75804480e+02
   1696    1698    1699 1       1.12000000e+02    3.56811520e+02
   1696    1698    1700 1       9.60300000e+01    5.40070720e+02
   1696    1698    1720 1       1.03090000e+02    5.20322240e+02
   1696    1723    1724 1       1.20640000e+02    5.08439680e+02
   1697    1696    1698 1       1.13690000e+02    3.54217440e+02
   1697    1696    1723 1       1.14530000e+02    3.58485120e+02
   1698    1696    1723 1       1.24830000e+02    4.77729120e+02
   1698    1700    1701 1       1.13690000e+02    3.54217440e+02
   1698    1700    1702 1       1.24830000e+02    4.77729120e+02
   1698    1700    1716 1       1.22490000e+02    4.75804480e+02
   1698    1720    1718 1       1.03830000e+02    5.17477120e+02
   1698    1720    1721 1       1.11170000e+02    3.56895200e+02
   1698    1720    1722 1       1.11170000e+02    3.56895200e+02
   1699    1698    1700 1       1.12000000e+02    3.56811520e+02
   1699    1698    1720 1       1.11170000e+02    3.56895200e+02
   1700    1698    1720 1       1.03090000e+02    5.20322240e+02
   1700    1702    1703 1       1.20640000e+02    5.08439680e+02
   1700    1702    1711 1       1.20640000e+02    5.08439680e+02
   1700    1716    1703 1       1.16810000e+02    4.91368960e+02
   1700    1716    1717 1       1.14760000e+02    3.49364000e+02
   1700    1716    1718 1       1.22490000e+02    4.75804480e+02
   1701    1700    1702 1       1.14530000e+02    3.58485120e+02
   1701    1700    1716 1       1.14760000e+02    3.49364000e+02
   1702    1700    1716 1       1.16810000e+02    4.91368960e+02
   1702    1703    1704 1       1.20020000e+02    5.32790560e+02
   1702    1703    1716 1       1.20640000e+02    5.08439680e+02
   1702    1711    1710 1       1.20020000e+02    5.32790560e+02
   1702    1711    1712 1       1.20830000e+02    5.08272320e+02
   1703    1702    1711 1       1.20020000e+02    5.32790560e+02
   1703    1704    1705 1       1.20830000e+02    5.08272320e+02
   1703    1704    1709 1       1.20020000e+02    5.32790560e+02
   1703    1716    1717 1       1.14530000e+02    3.58485120e+02
   1703    1716    1718 1       1.24830000e+02    4.77729120e+02
   1704    1703    1716 1       1.20640000e+02    5.08439680e+02
   1704    1705    1706 1       1.10630000e+02    3.64928480e+02
   1704    1705    1707 1       1.10630000e+02    3.64928480e+02
   1704    1705    1708 1       1.10630000e+02    3.64928480e+02
   1704    1709    1710 1       1.20020000e+02    5.32790560e+02
   1704    1709    5196 1       1.20640000e+02    5.08439680e+02
   1705    1704    1709 1       1.20830000e+02    5.08272320e+02
   1706    1705    1707 1       1.07730000e+02    2.99574400e+02
   1706    1705    1708 1       1.07730000e+02    2.99574400e+02
   1707    1705    1708 1       1.07730000e+02    2.99574400e+02
   1709    1710    1711 1       1.20020000e+02    5.32790560e+02
   1709    1710    5198 1       1.20640000e+02    5.08439680e+02
   1709    5196    5197 1       1.14530000e+02    3.58485120e+02
   1709    5196    5198 1       1.16810000e+02    4.91368960e+02
   1710    1709    5196 1       1.20640000e+02    5.08439680e+02
   1710    5198    5196 1       1.16810000e+02    4.91368960e+02
   1710    5198    5199 1       1.14530000e+02    3.58485120e+02
   1711    1710    5198 1       1.20640000e+02    5.08439680e+02
   1711    1712    1713 1       1.10630000e+02    3.64928480e+02
   1711    1712    1714 1       1.10630000e+02    3.64928480e+02
   1711    1712    1715 1       1.10630000e+02    3.64928480e+02
   1712    1711    1710 1       1.20830000e+02    5.08272320e+02
   1713    1712    1714 1       1.07730000e+02    2.99574400e+02
   1713    1712    1715 1       1.07730000e+02    2.99574400e+02
   1714    1712    1715 1       1.07730000e+02    2.99574400e+02
   1716    1718    1719 1       1.12000000e+02    3.56811520e+02
   1716    1718    1720 1       1.03090000e+02    5.20322240e+02
   1717    1716    1718 1       1.13690000e+02    3.54217440e+02
   1718    1720    1721 1       1.11170000e+02    3.56895200e+02
   1718    1720    1722 1       1.11170000e+02    3.56895200e+02
   1719    1718    1720 1       1.11170000e+02    3.56895200e+02
   1721    1720    1722 1       1.07220000e+02    3.00494880e+02
   1723    1724    1725 1       1.19880000e+02    3.75723200e+02
   1726    1730    1731 1       1.10280000e+02    5.05761920e+02
   1726    1730    1735 1       1.13070000e+02    5.03000480e+02
   1726    1730    1759 1       1.13070000e+02    5.03000480e+02
   1727    1726    1728 1       1.07730000e+02    2.99574400e+02
   1727    1726    1729 1       1.07730000e+02    2.99574400e+02
   1727    1726    1730 1       1.10530000e+02    3.60326080e+02
   1728    1726    1729 1       1.07730000e+02    2.99574400e+02
   1728    1726    1730 1       1.10530000e+02    3.60326080e+02
   1729    1726    1730 1       1.10530000e+02    3.60326080e+02
   1730    1731    1732 1       1.10530000e+02    3.60326080e+02
   1730    1731    1733 1       1.10530000e+02    3.60326080e+02
   1730    1731    1734 1       1.10530000e+02    3.60326080e+02
   1730    1735    1736 1       1.10210000e+02    5.31033280e+02
   1730    1735    1756 1       1.21870000e+02    5.06012960e+02
   1730    1759    1758 1       1.10210000e+02    5.31033280e+02
   1730    1759    1760 1       1.21870000e+02    5.06012960e+02
   1731    1730    1735 1       1.13070000e+02    5.03000480e+02
   1731    1730    1759 1       1.13070000e+02    5.03000480e+02
   1732    1731    1733 1       1.07730000e+02    2.99574400e+02
   1732    1731    1734 1       1.07730000e+02    2.99574400e+02
   1733    1731    1734 1       1.07730000e+02    2.99574400e+02
   1735    1730    1759 1       1.12520000e+02    5.08021280e+02
   1735    1736    1737 1       1.18410000e+02    5.33794720e+02
   1735    1736    1758 1       1.21100000e+02    5.12958400e+02
   1735    1756    1755 1       1.20020000e+02    5.32790560e+02
   1735    1756    1757 1       1.19880000e+02    3.75723200e+02
   1736    1735    1756 1       1.20730000e+02    5.29945440e+02
   1736    1737    1738 1       1.19820000e+02    3.74300640e+02
   1736    1737    1739 1       1.20730000e+02    5.29945440e+02
   1736    1758    1759 1       1.21100000e+02    5.12958400e+02
   1736    1758    1793 1       1.21100000e+02    5.12958400e+02
   1737    1736    1758 1       1.21100000e+02    5.12958400e+02
   1737    1739    1740 1       1.20640000e+02    5.08439680e+02
   1737    1739    1755 1       1.20020000e+02    5.32790560e+02
   1738    1737    1739 1       1.19880000e+02    3.75723200e+02
   1739    1740    1741 1       1.14530000e+02    3.58485120e+02
   1739    1740    1742 1       1.16810000e+02    4.91368960e+02
   1739    1740    1750 1       1.24830000e+02    4.77729120e+02
   1739    1755    1742 1       1.20640000e+02    5.08439680e+02
   1739    1755    1756 1       1.20020000e+02    5.32790560e+02
   1740    1739    1755 1       1.20640000e+02    5.08439680e+02
   1740    1742    1743 1       1.14760000e+02    3.49364000e+02
   1740    1742    1744 1       1.22490000e+02    4.75804480e+02
   1740    1742    1755 1       1.16810000e+02    4.91368960e+02
   1740    1750    1748 1       9.60300000e+01    5.40070720e+02
   1740    1750    1751 1       1.12000000e+02    3.56811520e+02
   1740    1750    1752 1       1.03090000e+02    5.20322240e+02
   1741    1740    1742 1       1.14760000e+02    3.49364000e+02
   1741    1740    1750 1       1.13690000e+02    3.54217440e+02
   1742    1740    1750 1       1.22490000e+02    4.75804480e+02
   1742    1744    1745 1       1.12000000e+02    3.56811520e+02
   1742    1744    1746 1       9.60300000e+01    5.40070720e+02
   1742    1744    1752 1       1.03090000e+02    5.20322240e+02
   1742    1755    1756 1       1.20640000e+02    5.08439680e+02
   1743    1742    1744 1       1.13690000e+02    3.54217440e+02
   1743    1742    1755 1       1.14530000e+02    3.58485120e+02
   1744    1742    1755 1       1.24830000e+02    4.77729120e+02
   1744    1746    1747 1       1.13690000e+02    3.54217440e+02
   1744    1746    1748 1       1.22490000e+02    4.75804480e+02
   1744    1746    2606 1       1.24830000e+02    4.77729120e+02
   1744    1752    1750 1       1.03830000e+02    5.17477120e+02
   1744    1752    1753 1       1.11170000e+02    3.56895200e+02
   1744    1752    1754 1       1.11170000e+02    3.56895200e+02
   1745    1744    1752 1       1.11170000e+02    3.56895200e+02
   1746    1744    1745 1       1.12000000e+02    3.56811520e+02
   1746    1748    1749 1       1.14760000e+02    3.49364000e+02
   1748    1746    1747 1       1.14760000e+02    3.49364000e+02
   1748    1750    1751 1       1.12000000e+02    3.56811520e+02
   1750    1748    1746 1       1.22490000e+02    4.75804480e+02
   1750    1748    1749 1       1.13690000e+02    3.54217440e+02
   1750    1748    2607 1       1.24830000e+02    4.77729120e+02
   1750    1752    1753 1       1.11170000e+02    3.56895200e+02
   1750    1752    1754 1       1.11170000e+02    3.56895200e+02
   1751    1750    1752 1       1.11170000e+02    3.56895200e+02
   1752    1744    1746 1       1.03090000e+02    5.20322240e+02
   1752    1750    1748 1       1.03090000e+02    5.20322240e+02
   1753    1752    1754 1       1.07220000e+02    3.00494880e+02
   1755    1756    1757 1       1.19880000e+02    3.75723200e+02
   1758    1759    1760 1       1.20730000e+02    5.29945440e+02
   1758    1793    1792 1       1.20730000e+02    5.29945440e+02
   1758    1793    1794 1       1.19820000e+02    3.74300640e+02
   1759    1758    1793 1       1.18410000e+02    5.33794720e+02
   1759    1760    1761 1       1.19880000e+02    3.75723200e+02
   1759    1760    1762 1       1.20020000e+02    5.32790560e+02
   1760    1762    1763 1       1.20640000e+02    5.08439680e+02
   1760    1762    1792 1       1.20020000e+02    5.32790560e+02
   1761    1760    1762 1       1.19880000e+02    3.75723200e+02
   1762    1763    1764 1       1.14530000e+02    3.58485120e+02
   1762    1763    1765 1       1.16810000e+02    4.91368960e+02
   1762    1763    1787 1       1.24830000e+02    4.77729120e+02
   1762    1792    1765 1       1.20640000e+02    5.08439680e+02
   1762    1792    1793 1       1.20020000e+02    5.32790560e+02
   1763    1762    1792 1       1.20640000e+02    5.08439680e+02
   1763    1765    1766 1       1.14760000e+02    3.49364000e+02
   1763    1765    1767 1       1.22490000e+02    4.75804480e+02
   1763    1765    1792 1       1.16810000e+02    4.91368960e+02
   1763    1787    1785 1       9.60300000e+01    5.40070720e+02
   1763    1787    1788 1       1.12000000e+02    3.56811520e+02
   1763    1787    1789 1       1.03090000e+02    5.20322240e+02
   1764    1763    1765 1       1.14760000e+02    3.49364000e+02
   1764    1763    1787 1       1.13690000e+02    3.54217440e+02
   1765    1763    1787 1       1.22490000e+02    4.75804480e+02
   1765    1767    1768 1       1.12000000e+02    3.56811520e+02
   1765    1767    1769 1       9.60300000e+01    5.40070720e+02
   1765    1767    1789 1       1.03090000e+02    5.20322240e+02
   1765    1792    1793 1       1.20640000e+02    5.08439680e+02
   1766    1765    1767 1       1.13690000e+02    3.54217440e+02
   1766    1765    1792 1       1.14530000e+02    3.58485120e+02
   1767    1765    1792 1       1.24830000e+02    4.77729120e+02
   1767    1769    1770 1       1.13690000e+02    3.54217440e+02
   1767    1769    1771 1       1.24830000e+02    4.77729120e+02
   1767    1769    1785 1       1.22490000e+02    4.75804480e+02
   1767    1789    1787 1       1.03830000e+02    5.17477120e+02
   1767    1789    1790 1       1.11170000e+02    3.56895200e+02
   1767    1789    1791 1       1.11170000e+02    3.56895200e+02
   1768    1767    1769 1       1.12000000e+02    3.56811520e+02
   1768    1767    1789 1       1.11170000e+02    3.56895200e+02
   1769    1767    1789 1       1.03090000e+02    5.20322240e+02
   1769    1771    1772 1       1.20640000e+02    5.08439680e+02
   1769    1771    1780 1       1.20640000e+02    5.08439680e+02
   1769    1785    1772 1       1.16810000e+02    4.91368960e+02
   1769    1785    1786 1       1.14760000e+02    3.49364000e+02
   1769    1785    1787 1       1.22490000e+02    4.75804480e+02
   1770    1769    1771 1       1.14530000e+02    3.58485120e+02
   1770    1769    1785 1       1.14760000e+02    3.49364000e+02
   1771    1769    1785 1       1.16810000e+02    4.91368960e+02
   1771    1772    1773 1       1.20020000e+02    5.32790560e+02
   1771    1772    1785 1       1.20640000e+02    5.08439680e+02
   1771    1780    1779 1       1.20020000e+02    5.32790560e+02
   1771    1780    1781 1       1.20830000e+02    5.08272320e+02
   1772    1771    1780 1       1.20020000e+02    5.32790560e+02
   1772    1773    1774 1       1.20830000e+02    5.08272320e+02
   1772    1773    1778 1       1.20020000e+02    5.32790560e+02
   1772    1785    1786 1       1.14530000e+02    3.58485120e+02
   1772    1785    1787 1       1.24830000e+02    4.77729120e+02
   1773    1772    1785 1       1.20640000e+02    5.08439680e+02
   1773    1774    1775 1       1.10630000e+02    3.64928480e+02
   1773    1774    1776 1       1.10630000e+02    3.64928480e+02
   1773    1774    1777 1       1.10630000e+02    3.64928480e+02
   1773    1778    1779 1       1.20020000e+02    5.32790560e+02
   1773    1778    2645 1       1.20640000e+02    5.08439680e+02
   1774    1773    1778 1       1.20830000e+02    5.08272320e+02
   1775    1774    1776 1       1.07730000e+02    2.99574400e+02
   1775    1774    1777 1       1.07730000e+02    2.99574400e+02
   1776    1774    1777 1       1.07730000e+02    2.99574400e+02
   1778    1779    1780 1       1.20020000e+02    5.32790560e+02
   1778    1779    2643 1       1.20640000e+02    5.08439680e+02
   1778    2645    2643 1       1.16810000e+02    4.91368960e+02
   1778    2645    2646 1       1.14530000e+02    3.58485120e+02
   1779    1778    2645 1       1.20640000e+02    5.08439680e+02
   1779    2643    2644 1       1.14530000e+02    3.58485120e+02
   1779    2643    2645 1       1.16810000e+02    4.91368960e+02
   1780    1779    2643 1       1.20640000e+02    5.08439680e+02
   1780    1781    1782 1       1.10630000e+02    3.64928480e+02
   1780    1781    1783 1       1.10630000e+02    3.64928480e+02
   1780    1781    1784 1       1.10630000e+02    3.64928480e+02
   1781    1780    1779 1       1.20830000e+02    5.08272320e+02
   1782    1781    1783 1       1.07730000e+02    2.99574400e+02
   1782    1781    1784 1       1.07730000e+02    2.99574400e+02
   1783    1781    1784 1       1.07730000e+02    2.99574400e+02
   1785    1787    1788 1       1.12000000e+02    3.56811520e+02
   1785    1787    1789 1       1.03090000e+02    5.20322240e+02
   1786    1785    1787 1       1.13690000e+02    3.54217440e+02
   1787    1789    1790 1       1.11170000e+02    3.56895200e+02
   1787    1789    1791 1       1.11170000e+02    3.56895200e+02
   1788    1787    1789 1       1.11170000e+02    3.56895200e+02
   1790    1789    1791 1       1.07220000e+02    3.00494880e+02
   1792    1793    1794 1       1.19880000e+02    3.75723200e+02
   1795    1799    1800 1       1.10280000e+02    5.05761920e+02
   1795    1799    1804 1       1.13070000e+02    5.03000480e+02
   1795    1799    1828 1       1.13070000e+02    5.03000480e+02
   1796    1795    1797 1       1.07730000e+02    2.99574400e+02
   1796    1795    1798 1       1.07730000e+02    2.99574400e+02
   1796    1795    1799 1       1.10530000e+02    3.60326080e+02
   1797    1795    1798 1       1.07730000e+02    2.99574400e+02
   1797    1795    1799 1       1.10530000e+02    3.60326080e+02
   1798    1795    1799 1       1.10530000e+02    3.60326080e+02
   1799    1800    1801 1       1.10530000e+02    3.60326080e+02
   1799    1800    1802 1       1.10530000e+02    3.60326080e+02
   1799    1800    1803 1       1.10530000e+02    3.60326080e+02
   1799    1804    1805 1       1.10210000e+02    5.31033280e+02
   1799    1804    1825 1       1.21870000e+02    5.06012960e+02
   1799    1828    1827 1       1.10210000e+02    5.31033280e+02
   1799    1828    1829 1       1.21870000e+02    5.06012960e+02
   1800    1799    1804 1       1.13070000e+02    5.03000480e+02
   1800    1799    1828 1       1.13070000e+02    5.03000480e+02
   1801    1800    1802 1       1.07730000e+02    2.99574400e+02
   1801    1800    1803 1       1.07730000e+02    2.99574400e+02
   1802    1800    1803 1       1.07730000e+02    2.99574400e+02
   1804    1799    1828 1       1.12520000e+02    5.08021280e+02
   1804    1805    1806 1       1.18410000e+02    5.33794720e+02
   1804    1805    1827 1       1.21100000e+02    5.12958400e+02
   1804    1825    1824 1       1.20020000e+02    5.32790560e+02
   1804    1825    1826 1       1.19880000e+02    3.75723200e+02
   1805    1804    1825 1       1.20730000e+02    5.29945440e+02
   1805    1806    1807 1       1.19820000e+02    3.74300640e+02
   1805    1806    1808 1       1.20730000e+02    5.29945440e+02
   1805    1827    1828 1       1.21100000e+02    5.12958400e+02
   1805    1827    1862 1       1.21100000e+02    5.12958400e+02
   1806    1805    1827 1       1.21100000e+02    5.12958400e+02
   1806    1808    1809 1       1.20640000e+02    5.08439680e+02
   1806    1808    1824 1       1.20020000e+02    5.32790560e+02
   1807    1806    1808 1       1.19880000e+02    3.75723200e+02
   1808    1809    1810 1       1.14530000e+02    3.58485120e+02
   1808    1809    1811 1       1.16810000e+02    4.91368960e+02
   1808    1809    1819 1       1.24830000e+02    4.77729120e+02
   1808    1824    1811 1       1.20640000e+02    5.08439680e+02
   1808    1824    1825 1       1.20020000e+02    5.32790560e+02
   1809    1808    1824 1       1.20640000e+02    5.08439680e+02
   1809    1811    1812 1       1.14760000e+02    3.49364000e+02
   1809    1811    1813 1       1.22490000e+02    4.75804480e+02
   1809    1811    1824 1       1.16810000e+02    4.91368960e+02
   1809    1819    1817 1       9.60300000e+01    5.40070720e+02
   1809    1819    1820 1       1.12000000e+02    3.56811520e+02
   1809    1819    1821 1       1.03090000e+02    5.20322240e+02
   1810    1809    1811 1       1.14760000e+02    3.49364000e+02
   1810    1809    1819 1       1.13690000e+02    3.54217440e+02
   1811    1809    1819 1       1.22490000e+02    4.75804480e+02
   1811    1813    1814 1       1.12000000e+02    3.56811520e+02
   1811    1813    1815 1       9.60300000e+01    5.40070720e+02
   1811    1813    1821 1       1.03090000e+02    5.20322240e+02
   1811    1824    1825 1       1.20640000e+02    5.08439680e+02
   1812    1811    1813 1       1.13690000e+02    3.54217440e+02
   1812    1811    1824 1       1.14530000e+02    3.58485120e+02
   1813    1811    1824 1       1.24830000e+02    4.77729120e+02
   1813    1815    1816 1       1.13690000e+02    3.54217440e+02
   1813    1815    1817 1       1.22490000e+02    4.75804480e+02
   1813    1815    3986 1       1.24830000e+02    4.77729120e+02
   1813    1821    1819 1       1.03830000e+02    5.17477120e+02
   1813    1821    1822 1       1.11170000e+02    3.56895200e+02
   1813    1821    1823 1       1.11170000e+02    3.56895200e+02
   1814    1813    1821 1       1.11170000e+02    3.56895200e+02
   1815    1813    1814 1       1.12000000e+02    3.56811520e+02
   1815    1817    1818 1       1.14760000e+02    3.49364000e+02
   1817    1815    1816 1       1.14760000e+02    3.49364000e+02
   1817    1819    1820 1       1.12000000e+02    3.56811520e+02
   1819    1817    1815 1       1.22490000e+02    4.75804480e+02
   1819    1817    1818 1       1.13690000e+02    3.54217440e+02
   1819    1817    3987 1       1.24830000e+02    4.77729120e+02
   1819    1821    1822 1       1.11170000e+02    3.56895200e+02
   1819    1821    1823 1       1.11170000e+02    3.56895200e+02
   1820    1819    1821 1       1.11170000e+02    3.56895200e+02
   1821    1813    1815 1       1.03090000e+02    5.20322240e+02
   1821    1819    1817 1       1.03090000e+02    5.20322240e+02
   1822    1821    1823 1       1.07220000e+02    3.00494880e+02
   1824    1825    1826 1       1.19880000e+02    3.75723200e+02
   1827    1828    1829 1       1.20730000e+02    5.29945440e+02
   1827    1862    1861 1       1.20730000e+02    5.29945440e+02
   1827    1862    1863 1       1.19820000e+02    3.74300640e+02
   1828    1827    1862 1       1.18410000e+02    5.33794720e+02
   1828    1829    1830 1       1.19880000e+02    3.75723200e+02
   1828    1829    1831 1       1.20020000e+02    5.32790560e+02
   1829    1831    1832 1       1.20640000e+02    5.08439680e+02
   1829    1831    1861 1       1.20020000e+02    5.32790560e+02
   1830    1829    1831 1       1.19880000e+02    3.75723200e+02
   1831    1832    1833 1       1.14530000e+02    3.58485120e+02
   1831    1832    1834 1       1.16810000e+02    4.91368960e+02
   1831    1832    1856 1       1.24830000e+02    4.77729120e+02
   1831    1861    1834 1       1.20640000e+02    5.08439680e+02
   1831    1861    1862 1       1.20020000e+02    5.32790560e+02
   1832    1831    1861 1       1.20640000e+02    5.08439680e+02
   1832    1834    1835 1       1.14760000e+02    3.49364000e+02
   1832    1834    1836 1       1.22490000e+02    4.75804480e+02
   1832    1834    1861 1       1.16810000e+02    4.91368960e+02
   1832    1856    1854 1       9.60300000e+01    5.40070720e+02
   1832    1856    1857 1       1.12000000e+02    3.56811520e+02
   1832    1856    1858 1       1.03090000e+02    5.20322240e+02
   1833    1832    1834 1       1.14760000e+02    3.49364000e+02
   1833    1832    1856 1       1.13690000e+02    3.54217440e+02
   1834    1832    1856 1       1.22490000e+02    4.75804480e+02
   1834    1836    1837 1       1.12000000e+02    3.56811520e+02
   1834    1836    1838 1       9.60300000e+01    5.40070720e+02
   1834    1836    1858 1       1.03090000e+02    5.20322240e+02
   1834    1861    1862 1       1.20640000e+02    5.08439680e+02
   1835    1834    1836 1       1.13690000e+02    3.54217440e+02
   1835    1834    1861 1       1.14530000e+02    3.58485120e+02
   1836    1834    1861 1       1.24830000e+02    4.77729120e+02
   1836    1838    1839 1       1.13690000e+02    3.54217440e+02
   1836    1838    1840 1       1.24830000e+02    4.77729120e+02
   1836    1838    1854 1       1.22490000e+02    4.75804480e+02
   1836    1858    1856 1       1.03830000e+02    5.17477120e+02
   1836    1858    1859 1       1.11170000e+02    3.56895200e+02
   1836    1858    1860 1       1.11170000e+02    3.56895200e+02
   1837    1836    1838 1       1.12000000e+02    3.56811520e+02
   1837    1836    1858 1       1.11170000e+02    3.56895200e+02
   1838    1836    1858 1       1.03090000e+02    5.20322240e+02
   1838    1840    1841 1       1.20640000e+02    5.08439680e+02
   1838    1840    1849 1       1.20640000e+02    5.08439680e+02
   1838    1854    1841 1       1.16810000e+02    4.91368960e+02
   1838    1854    1855 1       1.14760000e+02    3.49364000e+02
   1838    1854    1856 1       1.22490000e+02    4.75804480e+02
   1839    1838    1840 1       1.14530000e+02    3.58485120e+02
   1839    1838    1854 1       1.14760000e+02    3.49364000e+02
   1840    1838    1854 1       1.16810000e+02    4.91368960e+02
   1840    1841    1842 1       1.20020000e+02    5.32790560e+02
   1840    1841    1854 1       1.20640000e+02    5.08439680e+02
   1840    1849    1848 1       1.20020000e+02    5.32790560e+02
   1840    1849    1850 1       1.20830000e+02    5.08272320e+02
   1841    1840    1849 1       1.20020000e+02    5.32790560e+02
   1841    1842    1843 1       1.20830000e+02    5.08272320e+02
   1841    1842    1847 1       1.20020000e+02    5.32790560e+02
   1841    1854    1855 1       1.14530000e+02    3.58485120e+02
   1841    1854    1856 1       1.24830000e+02    4.77729120e+02
   1842    1841    1854 1       1.20640000e+02    5.08439680e+02
   1842    1843    1844 1       1.10630000e+02    3.64928480e+02
   1842    1843    1845 1       1.10630000e+02    3.64928480e+02
   1842    1843    1846 1       1.10630000e+02    3.64928480e+02
   1842    1847    1608 1       1.20640000e+02    5.08439680e+02
   1842    1847    1848 1       1.20020000e+02    5.32790560e+02
   1843    1842    1847 1       1.20830000e+02    5.08272320e+02
   1844    1843    1845 1       1.07730000e+02    2.99574400e+02
   1844    1843    1846 1       1.07730000e+02    2.99574400e+02
   1845    1843    1846 1       1.07730000e+02    2.99574400e+02
   1847    1608    1609 1       1.14530000e+02    3.58485120e+02
   1847    1608    1610 1       1.16810000e+02    4.91368960e+02
   1847    1848    1610 1       1.20640000e+02    5.08439680e+02
   1847    1848    1849 1       1.20020000e+02    5.32790560e+02
   1848    1610    1608 1       1.16810000e+02    4.91368960e+02
   1848    1610    1611 1       1.14530000e+02    3.58485120e+02
   1848    1847    1608 1       1.20640000e+02    5.08439680e+02
   1849    1848    1610 1       1.20640000e+02    5.08439680e+02
   1849    1850    1851 1       1.10630000e+02    3.64928480e+02
   1849    1850    1852 1       1.10630000e+02    3.64928480e+02
   1849    1850    1853 1       1.10630000e+02    3.64928480e+02
   1850    1849    1848 1       1.20830000e+02    5.08272320e+02
   1851    1850    1852 1       1.07730000e+02    2.99574400e+02
   1851    1850    1853 1       1.07730000e+02    2.99574400e+02
   1852    1850    1853 1       1.07730000e+02    2.99574400e+02
   1854    1856    1857 1       1.12000000e+02    3.56811520e+02
   1854    1856    1858 1       1.03090000e+02    5.20322240e+02
   1855    1854    1856 1       1.13690000e+02    3.54217440e+02
   1856    1858    1859 1       1.11170000e+02    3.56895200e+02
   1856    1858    1860 1       1.11170000e+02    3.56895200e+02
   1857    1856    1858 1       1.11170000e+02    3.56895200e+02
   1859    1858    1860 1       1.07220000e+02    3.00494880e+02
   1861    1862    1863 1       1.19880000e+02    3.75723200e+02
   1864    1868    1869 1       1.10280000e+02    5.05761920e+02
   1864    1868    1873 1       1.13070000e+02    5.03000480e+02
   1864    1868    1897 1       1.13070000e+02    5.03000480e+02
   1865    1864    1866 1       1.07730000e+02    2.99574400e+02
   1865    1864    1867 1       1.07730000e+02    2.99574400e+02
   1865    1864    1868 1       1.10530000e+02    3.60326080e+02
   1866    1864    1867 1       1.07730000e+02    2.99574400e+02
   1866    1864    1868 1       1.10530000e+02    3.60326080e+02
   1867    1864    1868 1       1.10530000e+02    3.60326080e+02
   1868    1869    1870 1       1.10530000e+02    3.60326080e+02
   1868    1869    1871 1       1.10530000e+02    3.60326080e+02
   1868    1869    1872 1       1.10530000e+02    3.60326080e+02
   1868    1873    1874 1       1.10210000e+02    5.31033280e+02
   1868    1873    1894 1       1.21870000e+02    5.06012960e+02
   1868    1897    1896 1       1.10210000e+02    5.31033280e+02
   1868    1897    1898 1       1.21870000e+02    5.06012960e+02
   1869    1868    1873 1       1.13070000e+02    5.03000480e+02
   1869    1868    1897 1       1.13070000e+02    5.03000480e+02
   1870    1869    1871 1       1.07730000e+02    2.99574400e+02
   1870    1869    1872 1       1.07730000e+02    2.99574400e+02
   1871    1869    1872 1       1.07730000e+02    2.99574400e+02
   1873    1868    1897 1       1.12520000e+02    5.08021280e+02
   1873    1874    1875 1       1.18410000e+02    5.33794720e+02
   1873    1874    1896 1       1.21100000e+02    5.12958400e+02
   1873    1894    1893 1       1.20020000e+02    5.32790560e+02
   1873    1894    1895 1       1.19880000e+02    3.75723200e+02
   1874    1873    1894 1       1.20730000e+02    5.29945440e+02
   1874    1875    1876 1       1.19820000e+02    3.74300640e+02
   1874    1875    1877 1       1.20730000e+02    5.29945440e+02
   1874    1896    1897 1       1.21100000e+02    5.12958400e+02
   1874    1896    1931 1       1.21100000e+02    5.12958400e+02
   1875    1874    1896 1       1.21100000e+02    5.12958400e+02
   1875    1877    1878 1       1.20640000e+02    5.08439680e+02
   1875    1877    1893 1       1.20020000e+02    5.32790560e+02
   1876    1875    1877 1       1.19880000e+02    3.75723200e+02
   1877    1878    1879 1       1.14530000e+02    3.58485120e+02
   1877    1878    1880 1       1.16810000e+02    4.91368960e+02
   1877    1878    1888 1       1.24830000e+02    4.77729120e+02
   1877    1893    1880 1       1.20640000e+02    5.08439680e+02
   1877    1893    1894 1       1.20020000e+02    5.32790560e+02
   1878    1877    1893 1       1.20640000e+02    5.08439680e+02
   1878    1880    1881 1       1.14760000e+02    3.49364000e+02
   1878    1880    1882 1       1.22490000e+02    4.75804480e+02
   1878    1880    1893 1       1.16810000e+02    4.91368960e+02
   1878    1888    1886 1       9.60300000e+01    5.40070720e+02
   1878    1888    1889 1       1.12000000e+02    3.56811520e+02
   1878    1888    1890 1       1.03090000e+02    5.20322240e+02
   1879    1878    1880 1       1.14760000e+02    3.49364000e+02
   1879    1878    1888 1       1.13690000e+02    3.54217440e+02
   1880    1878    1888 1       1.22490000e+02    4.75804480e+02
   1880    1882    1883 1       1.12000000e+02    3.56811520e+02
   1880    1882    1884 1       9.60300000e+01    5.40070720e+02
   1880    1882    1890 1       1.03090000e+02    5.20322240e+02
   1880    1893    1894 1       1.20640000e+02    5.08439680e+02
   1881    1880    1882 1       1.13690000e+02    3.54217440e+02
   1881    1880    1893 1       1.14530000e+02    3.58485120e+02
   1882    1880    1893 1       1.24830000e+02    4.77729120e+02
   1882    1884    1885 1       1.13690000e+02    3.54217440e+02
   1882    1884    1886 1       1.22490000e+02    4.75804480e+02
   1882    1884    2537 1       1.24830000e+02    4.77729120e+02
   1882    1890    1888 1       1.03830000e+02    5.17477120e+02
   1882    1890    1891 1       1.11170000e+02    3.56895200e+02
   1882    1890    1892 1       1.11170000e+02    3.56895200e+02
   1883    1882    1890 1       1.11170000e+02    3.56895200e+02
   1884    1882    1883 1       1.12000000e+02    3.56811520e+02
   1884    1886    1887 1       1.14760000e+02    3.49364000e+02
   1886    1884    1885 1       1.14760000e+02    3.49364000e+02
   1886    1888    1889 1       1.12000000e+02    3.56811520e+02
   1888    1886    1884 1       1.22490000e+02    4.75804480e+02
   1888    1886    1887 1       1.13690000e+02    3.54217440e+02
   1888    1886    2538 1       1.24830000e+02    4.77729120e+02
   1888    1890    1891 1       1.11170000e+02    3.56895200e+02
   1888    1890    1892 1       1.11170000e+02    3.56895200e+02
   1889    1888    1890 1       1.11170000e+02    3.56895200e+02
   1890    1882    1884 1       1.03090000e+02    5.20322240e+02
   1890    1888    1886 1       1.03090000e+02    5.20322240e+02
   1891    1890    1892 1       1.07220000e+02    3.00494880e+02
   1893    1894    1895 1       1.19880000e+02    3.75723200e+02
   1896    1897    1898 1       1.20730000e+02    5.29945440e+02
   1896    1931    1930 1       1.20730000e+02    5.29945440e+02
   1896    1931    1932 1       1.19820000e+02    3.74300640e+02
   1897    1896    1931 1       1.18410000e+02    5.33794720e+02
   1897    1898    1899 1       1.19880000e+02    3.75723200e+02
   1897    1898    1900 1       1.20020000e+02    5.32790560e+02
   1898    1900    1901 1       1.20640000e+02    5.08439680e+02
   1898    1900    1930 1       1.20020000e+02    5.32790560e+02
   1899    1898    1900 1       1.19880000e+02    3.75723200e+02
   1900    1901    1902 1       1.14530000e+02    3.58485120e+02
   1900    1901    1903 1       1.16810000e+02    4.91368960e+02
   1900    1901    1925 1       1.24830000e+02    4.77729120e+02
   1900    1930    1903 1       1.20640000e+02    5.08439680e+02
   1900    1930    1931 1       1.20020000e+02    5.32790560e+02
   1901    1900    1930 1       1.20640000e+02    5.08439680e+02
   1901    1903    1904 1       1.14760000e+02    3.49364000e+02
   1901    1903    1905 1       1.22490000e+02    4.75804480e+02
   1901    1903    1930 1       1.16810000e+02    4.91368960e+02
   1901    1925    1923 1       9.60300000e+01    5.40070720e+02
   1901    1925    1926 1       1.12000000e+02    3.56811520e+02
   1901    1925    1927 1       1.03090000e+02    5.20322240e+02
   1902    1901    1903 1       1.14760000e+02    3.49364000e+02
   1902    1901    1925 1       1.13690000e+02    3.54217440e+02
   1903    1901    1925 1       1.22490000e+02    4.75804480e+02
   1903    1905    1906 1       1.12000000e+02    3.56811520e+02
   1903    1905    1907 1       9.60300000e+01    5.40070720e+02
   1903    1905    1927 1       1.03090000e+02    5.20322240e+02
   1903    1930    1931 1       1.20640000e+02    5.08439680e+02
   1904    1903    1905 1       1.13690000e+02    3.54217440e+02
   1904    1903    1930 1       1.14530000e+02    3.58485120e+02
   1905    1903    1930 1       1.24830000e+02    4.77729120e+02
   1905    1907    1908 1       1.13690000e+02    3.54217440e+02
   1905    1907    1909 1       1.24830000e+02    4.77729120e+02
   1905    1907    1923 1       1.22490000e+02    4.75804480e+02
   1905    1927    1925 1       1.03830000e+02    5.17477120e+02
   1905    1927    1928 1       1.11170000e+02    3.56895200e+02
   1905    1927    1929 1       1.11170000e+02    3.56895200e+02
   1906    1905    1907 1       1.12000000e+02    3.56811520e+02
   1906    1905    1927 1       1.11170000e+02    3.56895200e+02
   1907    1905    1927 1       1.03090000e+02    5.20322240e+02
   1907    1909    1910 1       1.20640000e+02    5.08439680e+02
   1907    1909    1918 1       1.20640000e+02    5.08439680e+02
   1907    1923    1910 1       1.16810000e+02    4.91368960e+02
   1907    1923    1924 1       1.14760000e+02    3.49364000e+02
   1907    1923    1925 1       1.22490000e+02    4.75804480e+02
   1908    1907    1909 1       1.14530000e+02    3.58485120e+02
   1908    1907    1923 1       1.14760000e+02    3.49364000e+02
   1909    1907    1923 1       1.16810000e+02    4.91368960e+02
   1909    1910    1911 1       1.20020000e+02    5.32790560e+02
   1909    1910    1923 1       1.20640000e+02    5.08439680e+02
   1909    1918    1917 1       1.20020000e+02    5.32790560e+02
   1909    1918    1919 1       1.20830000e+02    5.08272320e+02
   1910    1909    1918 1       1.20020000e+02    5.32790560e+02
   1910    1911    1912 1       1.20830000e+02    5.08272320e+02
   1910    1911    1916 1       1.20020000e+02    5.32790560e+02
   1910    1923    1924 1       1.14530000e+02    3.58485120e+02
   1910    1923    1925 1       1.24830000e+02    4.77729120e+02
   1911    1910    1923 1       1.20640000e+02    5.08439680e+02
   1911    1912    1913 1       1.10630000e+02    3.64928480e+02
   1911    1912    1914 1       1.10630000e+02    3.64928480e+02
   1911    1912    1915 1       1.10630000e+02    3.64928480e+02
   1911    1916    1917 1       1.20020000e+02    5.32790560e+02
   1911    1916    5679 1       1.20640000e+02    5.08439680e+02
   1912    1911    1916 1       1.20830000e+02    5.08272320e+02
   1913    1912    1914 1       1.07730000e+02    2.99574400e+02
   1913    1912    1915 1       1.07730000e+02    2.99574400e+02
   1914    1912    1915 1       1.07730000e+02    2.99574400e+02
   1916    1917    1918 1       1.20020000e+02    5.32790560e+02
   1916    1917    5681 1       1.20640000e+02    5.08439680e+02
   1916    5679    5680 1       1.14530000e+02    3.58485120e+02
   1916    5679    5681 1       1.16810000e+02    4.91368960e+02
   1917    1916    5679 1       1.20640000e+02    5.08439680e+02
   1917    5681    5679 1       1.16810000e+02    4.91368960e+02
   1917    5681    5682 1       1.14530000e+02    3.58485120e+02
   1918    1917    5681 1       1.20640000e+02    5.08439680e+02
   1918    1919    1920 1       1.10630000e+02    3.64928480e+02
   1918    1919    1921 1       1.10630000e+02    3.64928480e+02
   1918    1919    1922 1       1.10630000e+02    3.64928480e+02
   1919    1918    1917 1       1.20830000e+02    5.08272320e+02
   1920    1919    1921 1       1.07730000e+02    2.99574400e+02
   1920    1919    1922 1       1.07730000e+02    2.99574400e+02
   1921    1919    1922 1       1.07730000e+02    2.99574400e+02
   1923    1925    1926 1       1.12000000e+02    3.56811520e+02
   1923    1925    1927 1       1.03090000e+02    5.20322240e+02
   1924    1923    1925 1       1.13690000e+02    3.54217440e+02
   1925    1927    1928 1       1.11170000e+02    3.56895200e+02
   1925    1927    1929 1       1.11170000e+02    3.56895200e+02
   1926    1925    1927 1       1.11170000e+02    3.56895200e+02
   1928    1927    1929 1       1.07220000e+02    3.00494880e+02
   1930    1931    1932 1       1.19880000e+02    3.75723200e+02
   1933    1937    1938 1       1.10280000e+02    5.05761920e+02
   1933    1937    1942 1       1.13070000e+02    5.03000480e+02
   1933    1937    1966 1       1.13070000e+02    5.03000480e+02
   1934    1933    1935 1       1.07730000e+02    2.99574400e+02
   1934    1933    1936 1       1.07730000e+02    2.99574400e+02
   1934    1933    1937 1       1.10530000e+02    3.60326080e+02
   1935    1933    1936 1       1.07730000e+02    2.99574400e+02
   1935    1933    1937 1       1.10530000e+02    3.60326080e+02
   1936    1933    1937 1       1.10530000e+02    3.60326080e+02
   1937    1938    1939 1       1.10530000e+02    3.60326080e+02
   1937    1938    1940 1       1.10530000e+02    3.60326080e+02
   1937    1938    1941 1       1.10530000e+02    3.60326080e+02
   1937    1942    1943 1       1.10210000e+02    5.31033280e+02
   1937    1942    1963 1       1.21870000e+02    5.06012960e+02
   1937    1966    1965 1       1.10210000e+02    5.31033280e+02
   1937    1966    1967 1       1.21870000e+02    5.06012960e+02
   1938    1937    1942 1       1.13070000e+02    5.03000480e+02
   1938    1937    1966 1       1.13070000e+02    5.03000480e+02
   1939    1938    1940 1       1.07730000e+02    2.99574400e+02
   1939    1938    1941 1       1.07730000e+02    2.99574400e+02
   1940    1938    1941 1       1.07730000e+02    2.99574400e+02
   1942    1937    1966 1       1.12520000e+02    5.08021280e+02
   1942    1943    1944 1       1.18410000e+02    5.33794720e+02
   1942    1943    1965 1       1.21100000e+02    5.12958400e+02
   1942    1963    1962 1       1.20020000e+02    5.32790560e+02
   1942    1963    1964 1       1.19880000e+02    3.75723200e+02
   1943    1942    1963 1       1.20730000e+02    5.29945440e+02
   1943    1944    1945 1       1.19820000e+02    3.74300640e+02
   1943    1944    1946 1       1.20730000e+02    5.29945440e+02
   1943    1965    1966 1       1.21100000e+02    5.12958400e+02
   1943    1965    2000 1       1.21100000e+02    5.12958400e+02
   1944    1943    1965 1       1.21100000e+02    5.12958400e+02
   1944    1946    1947 1       1.20640000e+02    5.08439680e+02
   1944    1946    1962 1       1.20020000e+02    5.32790560e+02
   1945    1944    1946 1       1.19880000e+02    3.75723200e+02
   1946    1947    1948 1       1.14530000e+02    3.58485120e+02
   1946    1947    1949 1       1.16810000e+02    4.91368960e+02
   1946    1947    1957 1       1.24830000e+02    4.77729120e+02
   1946    1962    1949 1       1.20640000e+02    5.08439680e+02
   1946    1962    1963 1       1.20020000e+02    5.32790560e+02
   1947    1946    1962 1       1.20640000e+02    5.08439680e+02
   1947    1949    1950 1       1.14760000e+02    3.49364000e+02
   1947    1949    1951 1       1.22490000e+02    4.75804480e+02
   1947    1949    1962 1       1.16810000e+02    4.91368960e+02
   1947    1957    1955 1       9.60300000e+01    5.40070720e+02
   1947    1957    1958 1       1.12000000e+02    3.56811520e+02
   1947    1957    1959 1       1.03090000e+02    5.20322240e+02
   1948    1947    1949 1       1.14760000e+02    3.49364000e+02
   1948    1947    1957 1       1.13690000e+02    3.54217440e+02
   1949    1947    1957 1       1.22490000e+02    4.75804480e+02
   1949    1951    1952 1       1.12000000e+02    3.56811520e+02
   1949    1951    1953 1       9.60300000e+01    5.40070720e+02
   1949    1951    1959 1       1.03090000e+02    5.20322240e+02
   1949    1962    1963 1       1.20640000e+02    5.08439680e+02
   1950    1949    1951 1       1.13690000e+02    3.54217440e+02
   1950    1949    1962 1       1.14530000e+02    3.58485120e+02
   1951    1949    1962 1       1.24830000e+02    4.77729120e+02
   1951    1953    1954 1       1.13690000e+02    3.54217440e+02
   1951    1953    1955 1       1.22490000e+02    4.75804480e+02
   1951    1953    6125 1       1.24830000e+02    4.77729120e+02
   1951    1959    1957 1       1.03830000e+02    5.17477120e+02
   1951    1959    1960 1       1.11170000e+02    3.56895200e+02
   1951    1959    1961 1       1.11170000e+02    3.56895200e+02
   1952    1951    1959 1       1.11170000e+02    3.56895200e+02
   1953    1951    1952 1       1.12000000e+02    3.56811520e+02
   1953    1955    1956 1       1.14760000e+02    3.49364000e+02
   1955    1953    1954 1       1.14760000e+02    3.49364000e+02
   1955    1957    1958 1       1.12000000e+02    3.56811520e+02
   1957    1955    1953 1       1.22490000e+02    4.75804480e+02
   1957    1955    1956 1       1.13690000e+02    3.54217440e+02
   1957    1955    6126 1       1.24830000e+02    4.77729120e+02
   1957    1959    1960 1       1.11170000e+02    3.56895200e+02
   1957    1959    1961 1       1.11170000e+02    3.56895200e+02
   1958    1957    1959 1       1.11170000e+02    3.56895200e+02
   1959    1951    1953 1       1.03090000e+02    5.20322240e+02
   1959    1957    1955 1       1.03090000e+02    5.20322240e+02
   1960    1959    1961 1       1.07220000e+02    3.00494880e+02
   1962    1963    1964 1       1.19880000e+02    3.75723200e+02
   1965    1966    1967 1       1.20730000e+02    5.29945440e+02
   1965    2000    1999 1       1.20730000e+02    5.29945440e+02
   1965    2000    2001 1       1.19820000e+02    3.74300640e+02
   1966    1965    2000 1       1.18410000e+02    5.33794720e+02
   1966    1967    1968 1       1.19880000e+02    3.75723200e+02
   1966    1967    1969 1       1.20020000e+02    5.32790560e+02
   1967    1969    1970 1       1.20640000e+02    5.08439680e+02
   1967    1969    1999 1       1.20020000e+02    5.32790560e+02
   1968    1967    1969 1       1.19880000e+02    3.75723200e+02
   1969    1970    1971 1       1.14530000e+02    3.58485120e+02
   1969    1970    1972 1       1.16810000e+02    4.91368960e+02
   1969    1970    1994 1       1.24830000e+02    4.77729120e+02
   1969    1999    1972 1       1.20640000e+02    5.08439680e+02
   1969    1999    2000 1       1.20020000e+02    5.32790560e+02
   1970    1969    1999 1       1.20640000e+02    5.08439680e+02
   1970    1972    1973 1       1.14760000e+02    3.49364000e+02
   1970    1972    1974 1       1.22490000e+02    4.75804480e+02
   1970    1972    1999 1       1.16810000e+02    4.91368960e+02
   1970    1994    1992 1       9.60300000e+01    5.40070720e+02
   1970    1994    1995 1       1.12000000e+02    3.56811520e+02
   1970    1994    1996 1       1.03090000e+02    5.20322240e+02
   1971    1970    1972 1       1.14760000e+02    3.49364000e+02
   1971    1970    1994 1       1.13690000e+02    3.54217440e+02
   1972    1970    1994 1       1.22490000e+02    4.75804480e+02
   1972    1974    1975 1       1.12000000e+02    3.56811520e+02
   1972    1974    1976 1       9.60300000e+01    5.40070720e+02
   1972    1974    1996 1       1.03090000e+02    5.20322240e+02
   1972    1999    2000 1       1.20640000e+02    5.08439680e+02
   1973    1972    1974 1       1.13690000e+02    3.54217440e+02
   1973    1972    1999 1       1.14530000e+02    3.58485120e+02
   1974    1972    1999 1       1.24830000e+02    4.77729120e+02
   1974    1976    1977 1       1.13690000e+02    3.54217440e+02
   1974    1976    1978 1       1.24830000e+02    4.77729120e+02
   1974    1976    1992 1       1.22490000e+02    4.75804480e+02
   1974    1996    1994 1       1.03830000e+02    5.17477120e+02
   1974    1996    1997 1       1.11170000e+02    3.56895200e+02
   1974    1996    1998 1       1.11170000e+02    3.56895200e+02
   1975    1974    1976 1       1.12000000e+02    3.56811520e+02
   1975    1974    1996 1       1.11170000e+02    3.56895200e+02
   1976    1974    1996 1       1.03090000e+02    5.20322240e+02
   1976    1978    1979 1       1.20640000e+02    5.08439680e+02
   1976    1978    1987 1       1.20640000e+02    5.08439680e+02
   1976    1992    1979 1       1.16810000e+02    4.91368960e+02
   1976    1992    1993 1       1.14760000e+02    3.49364000e+02
   1976    1992    1994 1       1.22490000e+02    4.75804480e+02
   1977    1976    1978 1       1.14530000e+02    3.58485120e+02
   1977    1976    1992 1       1.14760000e+02    3.49364000e+02
   1978    1976    1992 1       1.16810000e+02    4.91368960e+02
   1978    1979    1980 1       1.20020000e+02    5.32790560e+02
   1978    1979    1992 1       1.20640000e+02    5.08439680e+02
   1978    1987    1986 1       1.20020000e+02    5.32790560e+02
   1978    1987    1988 1       1.20830000e+02    5.08272320e+02
   1979    1978    1987 1       1.20020000e+02    5.32790560e+02
   1979    1980    1981 1       1.20830000e+02    5.08272320e+02
   1979    1980    1985 1       1.20020000e+02    5.32790560e+02
   1979    1992    1993 1       1.14530000e+02    3.58485120e+02
   1979    1992    1994 1       1.24830000e+02    4.77729120e+02
   1980    1979    1992 1       1.20640000e+02    5.08439680e+02
   1980    1981    1982 1       1.10630000e+02    3.64928480e+02
   1980    1981    1983 1       1.10630000e+02    3.64928480e+02
   1980    1981    1984 1       1.10630000e+02    3.64928480e+02
   1980    1985    1986 1       1.20020000e+02    5.32790560e+02
   1980    1985    4094 1       1.20640000e+02    5.08439680e+02
   1981    1980    1985 1       1.20830000e+02    5.08272320e+02
   1982    1981    1983 1       1.07730000e+02    2.99574400e+02
   1982    1981    1984 1       1.07730000e+02    2.99574400e+02
   1983    1981    1984 1       1.07730000e+02    2.99574400e+02
   1985    1986    1987 1       1.20020000e+02    5.32790560e+02
   1985    1986    4092 1       1.20640000e+02    5.08439680e+02
   1985    4094    4092 1       1.16810000e+02    4.91368960e+02
   1985    4094    4095 1       1.14530000e+02    3.58485120e+02
   1986    1985    4094 1       1.20640000e+02    5.08439680e+02
   1986    4092    4093 1       1.14530000e+02    3.58485120e+02
   1986    4092    4094 1       1.16810000e+02    4.91368960e+02
   1987    1986    4092 1       1.20640000e+02    5.08439680e+02
   1987    1988    1989 1       1.10630000e+02    3.64928480e+02
   1987    1988    1990 1       1.10630000e+02    3.64928480e+02
   1987    1988    1991 1       1.10630000e+02    3.64928480e+02
   1988    1987    1986 1       1.20830000e+02    5.08272320e+02
   1989    1988    1990 1       1.07730000e+02    2.99574400e+02
   1989    1988    1991 1       1.07730000e+02    2.99574400e+02
   1990    1988    1991 1       1.07730000e+02    2.99574400e+02
   1992    1994    1995 1       1.12000000e+02    3.56811520e+02
   1992    1994    1996 1       1.03090000e+02    5.20322240e+02
   1993    1992    1994 1       1.13690000e+02    3.54217440e+02
   1994    1996    1997 1       1.11170000e+02    3.56895200e+02
   1994    1996    1998 1       1.11170000e+02    3.56895200e+02
   1995    1994    1996 1       1.11170000e+02    3.56895200e+02
   1997    1996    1998 1       1.07220000e+02    3.00494880e+02
   1999    2000    2001 1       1.19880000e+02    3.75723200e+02
   2002    2006    2007 1       1.10280000e+02    5.05761920e+02
   2002    2006    2011 1       1.13070000e+02    5.03000480e+02
   2002    2006    2035 1       1.13070000e+02    5.03000480e+02
   2003    2002    2004 1       1.07730000e+02    2.99574400e+02
   2003    2002    2005 1       1.07730000e+02    2.99574400e+02
   2003    2002    2006 1       1.10530000e+02    3.60326080e+02
   2004    2002    2005 1       1.07730000e+02    2.99574400e+02
   2004    2002    2006 1       1.10530000e+02    3.60326080e+02
   2005    2002    2006 1       1.10530000e+02    3.60326080e+02
   2006    2007    2008 1       1.10530000e+02    3.60326080e+02
   2006    2007    2009 1       1.10530000e+02    3.60326080e+02
   2006    2007    2010 1       1.10530000e+02    3.60326080e+02
   2006    2011    2012 1       1.10210000e+02    5.31033280e+02
   2006    2011    2032 1       1.21870000e+02    5.06012960e+02
   2006    2035    2034 1       1.10210000e+02    5.31033280e+02
   2006    2035    2036 1       1.21870000e+02    5.06012960e+02
   2007    2006    2011 1       1.13070000e+02    5.03000480e+02
   2007    2006    2035 1       1.13070000e+02    5.03000480e+02
   2008    2007    2009 1       1.07730000e+02    2.99574400e+02
   2008    2007    2010 1       1.07730000e+02    2.99574400e+02
   2009    2007    2010 1       1.07730000e+02    2.99574400e+02
   2011    2006    2035 1       1.12520000e+02    5.08021280e+02
   2011    2012    2013 1       1.18410000e+02    5.33794720e+02
   2011    2012    2034 1       1.21100000e+02    5.12958400e+02
   2011    2032    2031 1       1.20020000e+02    5.32790560e+02
   2011    2032    2033 1       1.19880000e+02    3.75723200e+02
   2012    2011    2032 1       1.20730000e+02    5.29945440e+02
   2012    2013    2014 1       1.19820000e+02    3.74300640e+02
   2012    2013    2015 1       1.20730000e+02    5.29945440e+02
   2012    2034    2035 1       1.21100000e+02    5.12958400e+02
   2012    2034    2069 1       1.21100000e+02    5.12958400e+02
   2013    2012    2034 1       1.21100000e+02    5.12958400e+02
   2013    2015    2016 1       1.20640000e+02    5.08439680e+02
   2013    2015    2031 1       1.20020000e+02    5.32790560e+02
   2014    2013    2015 1       1.19880000e+02    3.75723200e+02
   2015    2016    2017 1       1.14530000e+02    3.58485120e+02
   2015    2016    2018 1       1.16810000e+02    4.91368960e+02
   2015    2016    2026 1       1.24830000e+02    4.77729120e+02
   2015    2031    2018 1       1.20640000e+02    5.08439680e+02
   2015    2031    2032 1       1.20020000e+02    5.32790560e+02
   2016    2015    2031 1       1.20640000e+02    5.08439680e+02
   2016    2018    2019 1       1.14760000e+02    3.49364000e+02
   2016    2018    2020 1       1.22490000e+02    4.75804480e+02
   2016    2018    2031 1       1.16810000e+02    4.91368960e+02
   2016    2026    2024 1       9.60300000e+01    5.40070720e+02
   2016    2026    2027 1       1.12000000e+02    3.56811520e+02
   2016    2026    2028 1       1.03090000e+02    5.20322240e+02
   2017    2016    2018 1       1.14760000e+02    3.49364000e+02
   2017    2016    2026 1       1.13690000e+02    3.54217440e+02
   2018    2016    2026 1       1.22490000e+02    4.75804480e+02
   2018    2020    2021 1       1.12000000e+02    3.56811520e+02
   2018    2020    2022 1       9.60300000e+01    5.40070720e+02
   2018    2020    2028 1       1.03090000e+02    5.20322240e+02
   2018    2031    2032 1       1.20640000e+02    5.08439680e+02
   2019    2018    2020 1       1.13690000e+02    3.54217440e+02
   2019    2018    2031 1       1.14530000e+02    3.58485120e+02
   2020    2018    2031 1       1.24830000e+02    4.77729120e+02
   2020    2022    1571 1       1.24830000e+02    4.77729120e+02
   2020    2022    2023 1       1.13690000e+02    3.54217440e+02
   2020    2022    2024 1       1.22490000e+02    4.75804480e+02
   2020    2028    2026 1       1.03830000e+02    5.17477120e+02
   2020    2028    2029 1       1.11170000e+02    3.56895200e+02
   2020    2028    2030 1       1.11170000e+02    3.56895200e+02
   2021    2020    2028 1       1.11170000e+02    3.56895200e+02
   2022    2020    2021 1       1.12000000e+02    3.56811520e+02
   2022    2024    2025 1       1.14760000e+02    3.49364000e+02
   2024    2022    2023 1       1.14760000e+02    3.49364000e+02
   2024    2026    2027 1       1.12000000e+02    3.56811520e+02
   2026    2024    1572 1       1.24830000e+02    4.77729120e+02
   2026    2024    2022 1       1.22490000e+02    4.75804480e+02
   2026    2024    2025 1       1.13690000e+02    3.54217440e+02
   2026    2028    2029 1       1.11170000e+02    3.56895200e+02
   2026    2028    2030 1       1.11170000e+02    3.56895200e+02
   2027    2026    2028 1       1.11170000e+02    3.56895200e+02
   2028    2020    2022 1       1.03090000e+02    5.20322240e+02
   2028    2026    2024 1       1.03090000e+02    5.20322240e+02
   2029    2028    2030 1       1.07220000e+02    3.00494880e+02
   2031    2032    2033 1       1.19880000e+02    3.75723200e+02
   2034    2035    2036 1       1.20730000e+02    5.29945440e+02
   2034    2069    2068 1       1.20730000e+02    5.29945440e+02
   2034    2069    2070 1       1.19820000e+02    3.74300640e+02
   2035    2034    2069 1       1.18410000e+02    5.33794720e+02
   2035    2036    2037 1       1.19880000e+02    3.75723200e+02
   2035    2036    2038 1       1.20020000e+02    5.32790560e+02
   2036    2038    2039 1       1.20640000e+02    5.08439680e+02
   2036    2038    2068 1       1.20020000e+02    5.32790560e+02
   2037    2036    2038 1       1.19880000e+02    3.75723200e+02
   2038    2039    2040 1       1.14530000e+02    3.58485120e+02
   2038    2039    2041 1       1.16810000e+02    4.91368960e+02
   2038    2039    2063 1       1.24830000e+02    4.77729120e+02
   2038    2068    2041 1       1.20640000e+02    5.08439680e+02
   2038    2068    2069 1       1.20020000e+02    5.32790560e+02
   2039    2038    2068 1       1.20640000e+02    5.08439680e+02
   2039    2041    2042 1       1.14760000e+02    3.49364000e+02
   2039    2041    2043 1       1.22490000e+02    4.75804480e+02
   2039    2041    2068 1       1.16810000e+02    4.91368960e+02
   2039    2063    2061 1       9.60300000e+01    5.40070720e+02
   2039    2063    2064 1       1.12000000e+02    3.56811520e+02
   2039    2063    2065 1       1.03090000e+02    5.20322240e+02
   2040    2039    2041 1       1.14760000e+02    3.49364000e+02
   2040    2039    2063 1       1.13690000e+02    3.54217440e+02
   2041    2039    2063 1       1.22490000e+02    4.75804480e+02
   2041    2043    2044 1       1.12000000e+02    3.56811520e+02
   2041    2043    2045 1       9.60300000e+01    5.40070720e+02
   2041    2043    2065 1       1.03090000e+02    5.20322240e+02
   2041    2068    2069 1       1.20640000e+02    5.08439680e+02
   2042    2041    2043 1       1.13690000e+02    3.54217440e+02
   2042    2041    2068 1       1.14530000e+02    3.58485120e+02
   2043    2041    2068 1       1.24830000e+02    4.77729120e+02
   2043    2045    2046 1       1.13690000e+02    3.54217440e+02
   2043    2045    2047 1       1.24830000e+02    4.77729120e+02
   2043    2045    2061 1       1.22490000e+02    4.75804480e+02
   2043    2065    2063 1       1.03830000e+02    5.17477120e+02
   2043    2065    2066 1       1.11170000e+02    3.56895200e+02
   2043    2065    2067 1       1.11170000e+02    3.56895200e+02
   2044    2043    2045 1       1.12000000e+02    3.56811520e+02
   2044    2043    2065 1       1.11170000e+02    3.56895200e+02
   2045    2043    2065 1       1.03090000e+02    5.20322240e+02
   2045    2047    2048 1       1.20640000e+02    5.08439680e+02
   2045    2047    2056 1       1.20640000e+02    5.08439680e+02
   2045    2061    2048 1       1.16810000e+02    4.91368960e+02
   2045    2061    2062 1       1.14760000e+02    3.49364000e+02
   2045    2061    2063 1       1.22490000e+02    4.75804480e+02
   2046    2045    2047 1       1.14530000e+02    3.58485120e+02
   2046    2045    2061 1       1.14760000e+02    3.49364000e+02
   2047    2045    2061 1       1.16810000e+02    4.91368960e+02
   2047    2048    2049 1       1.20020000e+02    5.32790560e+02
   2047    2048    2061 1       1.20640000e+02    5.08439680e+02
   2047    2056    2055 1       1.20020000e+02    5.32790560e+02
   2047    2056    2057 1       1.20830000e+02    5.08272320e+02
   2048    2047    2056 1       1.20020000e+02    5.32790560e+02
   2048    2049    2050 1       1.20830000e+02    5.08272320e+02
   2048    2049    2054 1       1.20020000e+02    5.32790560e+02
   2048    2061    2062 1       1.14530000e+02    3.58485120e+02
   2048    2061    2063 1       1.24830000e+02    4.77729120e+02
   2049    2048    2061 1       1.20640000e+02    5.08439680e+02
   2049    2050    2051 1       1.10630000e+02    3.64928480e+02
   2049    2050    2052 1       1.10630000e+02    3.64928480e+02
   2049    2050    2053 1       1.10630000e+02    3.64928480e+02
   2049    2054    2055 1       1.20020000e+02    5.32790560e+02
   2049    2054    3747 1       1.20640000e+02    5.08439680e+02
   2050    2049    2054 1       1.20830000e+02    5.08272320e+02
   2051    2050    2052 1       1.07730000e+02    2.99574400e+02
   2051    2050    2053 1       1.07730000e+02    2.99574400e+02
   2052    2050    2053 1       1.07730000e+02    2.99574400e+02
   2054    2055    2056 1       1.20020000e+02    5.32790560e+02
   2054    2055    3749 1       1.20640000e+02    5.08439680e+02
   2054    3747    3748 1       1.14530000e+02    3.58485120e+02
   2054    3747    3749 1       1.16810000e+02    4.91368960e+02
   2055    2054    3747 1       1.20640000e+02    5.08439680e+02
   2055    3749    3747 1       1.16810000e+02    4.91368960e+02
   2055    3749    3750 1       1.14530000e+02    3.58485120e+02
   2056    2055    3749 1       1.20640000e+02    5.08439680e+02
   2056    2057    2058 1       1.10630000e+02    3.64928480e+02
   2056    2057    2059 1       1.10630000e+02    3.64928480e+02
   2056    2057    2060 1       1.10630000e+02    3.64928480e+02
   2057    2056    2055 1       1.20830000e+02    5.08272320e+02
   2058    2057    2059 1       1.07730000e+02    2.99574400e+02
   2058    2057    2060 1       1.07730000e+02    2.99574400e+02
   2059    2057    2060 1       1.07730000e+02    2.99574400e+02
   2061    2063    2064 1       1.12000000e+02    3.56811520e+02
   2061    2063    2065 1       1.03090000e+02    5.20322240e+02
   2062    2061    2063 1       1.13690000e+02    3.54217440e+02
   2063    2065    2066 1       1.11170000e+02    3.56895200e+02
   2063    2065    2067 1       1.11170000e+02    3.56895200e+02
   2064    2063    2065 1       1.11170000e+02    3.56895200e+02
   2066    2065    2067 1       1.07220000e+02    3.00494880e+02
   2068    2069    2070 1       1.19880000e+02    3.75723200e+02
   2071    2075    2076 1       1.10280000e+02    5.05761920e+02
   2071    2075    2080 1       1.13070000e+02    5.03000480e+02
   2071    2075    2104 1       1.13070000e+02    5.03000480e+02
   2072    2071    2073 1       1.07730000e+02    2.99574400e+02
   2072    2071    2074 1       1.07730000e+02    2.99574400e+02
   2072    2071    2075 1       1.10530000e+02    3.60326080e+02
   2073    2071    2074 1       1.07730000e+02    2.99574400e+02
   2073    2071    2075 1       1.10530000e+02    3.60326080e+02
   2074    2071    2075 1       1.10530000e+02    3.60326080e+02
   2075    2076    2077 1       1.10530000e+02    3.60326080e+02
   2075    2076    2078 1       1.10530000e+02    3.60326080e+02
   2075    2076    2079 1       1.10530000e+02    3.60326080e+02
   2075    2080    2081 1       1.10210000e+02    5.31033280e+02
   2075    2080    2101 1       1.21870000e+02    5.06012960e+02
   2075    2104    2103 1       1.10210000e+02    5.31033280e+02
   2075    2104    2105 1       1.21870000e+02    5.06012960e+02
   2076    2075    2080 1       1.13070000e+02    5.03000480e+02
   2076    2075    2104 1       1.13070000e+02    5.03000480e+02
   2077    2076    2078 1       1.07730000e+02    2.99574400e+02
   2077    2076    2079 1       1.07730000e+02    2.99574400e+02
   2078    2076    2079 1       1.07730000e+02    2.99574400e+02
   2080    2075    2104 1       1.12520000e+02    5.08021280e+02
   2080    2081    2082 1       1.18410000e+02    5.33794720e+02
   2080    2081    2103 1       1.21100000e+02    5.12958400e+02
   2080    2101    2100 1       1.20020000e+02    5.32790560e+02
   2080    2101    2102 1       1.19880000e+02    3.75723200e+02
   2081    2080    2101 1       1.20730000e+02    5.29945440e+02
   2081    2082    2083 1       1.19820000e+02    3.74300640e+02
   2081    2082    2084 1       1.20730000e+02    5.29945440e+02
   2081    2103    2104 1       1.21100000e+02    5.12958400e+02
   2081    2103    2138 1       1.21100000e+02    5.12958400e+02
   2082    2081    2103 1       1.21100000e+02    5.12958400e+02
   2082    2084    2085 1       1.20640000e+02    5.08439680e+02
   2082    2084    2100 1       1.20020000e+02    5.32790560e+02
   2083    2082    2084 1       1.19880000e+02    3.75723200e+02
   2084    2085    2086 1       1.14530000e+02    3.58485120e+02
   2084    2085    2087 1       1.16810000e+02    4.91368960e+02
   2084    2085    2095 1       1.24830000e+02    4.77729120e+02
   2084    2100    2087 1       1.20640000e+02    5.08439680e+02
   2084    2100    2101 1       1.20020000e+02    5.32790560e+02
   2085    2084    2100 1       1.20640000e+02    5.08439680e+02
   2085    2087    2088 1       1.14760000e+02    3.49364000e+02
   2085    2087    2089 1       1.22490000e+02    4.75804480e+02
   2085    2087    2100 1       1.16810000e+02    4.91368960e+02
   2085    2095    2093 1       9.60300000e+01    5.40070720e+02
   2085    2095    2096 1       1.12000000e+02    3.56811520e+02
   2085    2095    2097 1       1.03090000e+02    5.20322240e+02
   2086    2085    2087 1       1.14760000e+02    3.49364000e+02
   2086    2085    2095 1       1.13690000e+02    3.54217440e+02
   2087    2085    2095 1       1.22490000e+02    4.75804480e+02
   2087    2089    2090 1       1.12000000e+02    3.56811520e+02
   2087    2089    2091 1       9.60300000e+01    5.40070720e+02
   2087    2089    2097 1       1.03090000e+02    5.20322240e+02
   2087    2100    2101 1       1.20640000e+02    5.08439680e+02
   2088    2087    2089 1       1.13690000e+02    3.54217440e+02
   2088    2087    2100 1       1.14530000e+02    3.58485120e+02
   2089    2087    2100 1       1.24830000e+02    4.77729120e+02
   2089    2091    1157 1       1.24830000e+02    4.77729120e+02
   2089    2091    2092 1       1.13690000e+02    3.54217440e+02
   2089    2091    2093 1       1.22490000e+02    4.75804480e+02
   2089    2097    2095 1       1.03830000e+02    5.17477120e+02
   2089    2097    2098 1       1.11170000e+02    3.56895200e+02
   2089    2097    2099 1       1.11170000e+02    3.56895200e+02
   2090    2089    2097 1       1.11170000e+02    3.56895200e+02
   2091    2089    2090 1       1.12000000e+02    3.56811520e+02
   2091    2093    2094 1       1.14760000e+02    3.49364000e+02
   2093    2091    2092 1       1.14760000e+02    3.49364000e+02
   2093    2095    2096 1       1.12000000e+02    3.56811520e+02
   2095    2093    1158 1       1.24830000e+02    4.77729120e+02
   2095    2093    2091 1       1.22490000e+02    4.75804480e+02
   2095    2093    2094 1       1.13690000e+02    3.54217440e+02
   2095    2097    2098 1       1.11170000e+02    3.56895200e+02
   2095    2097    2099 1       1.11170000e+02    3.56895200e+02
   2096    2095    2097 1       1.11170000e+02    3.56895200e+02
   2097    2089    2091 1       1.03090000e+02    5.20322240e+02
   2097    2095    2093 1       1.03090000e+02    5.20322240e+02
   2098    2097    2099 1       1.07220000e+02    3.00494880e+02
   2100    2101    2102 1       1.19880000e+02    3.75723200e+02
   2103    2104    2105 1       1.20730000e+02    5.29945440e+02
   2103    2138    2137 1       1.20730000e+02    5.29945440e+02
   2103    2138    2139 1       1.19820000e+02    3.74300640e+02
   2104    2103    2138 1       1.18410000e+02    5.33794720e+02
   2104    2105    2106 1       1.19880000e+02    3.75723200e+02
   2104    2105    2107 1       1.20020000e+02    5.32790560e+02
   2105    2107    2108 1       1.20640000e+02    5.08439680e+02
   2105    2107    2137 1       1.20020000e+02    5.32790560e+02
   2106    2105    2107 1       1.19880000e+02    3.75723200e+02
   2107    2108    2109 1       1.14530000e+02    3.58485120e+02
   2107    2108    2110 1       1.16810000e+02    4.91368960e+02
   2107    2108    2132 1       1.24830000e+02    4.77729120e+02
   2107    2137    2110 1       1.20640000e+02    5.08439680e+02
   2107    2137    2138 1       1.20020000e+02    5.32790560e+02
   2108    2107    2137 1       1.20640000e+02    5.08439680e+02
   2108    2110    2111 1       1.14760000e+02    3.49364000e+02
   2108    2110    2112 1       1.22490000e+02    4.75804480e+02
   2108    2110    2137 1       1.16810000e+02    4.91368960e+02
   2108    2132    2130 1       9.60300000e+01    5.40070720e+02
   2108    2132    2133 1       1.12000000e+02    3.56811520e+02
   2108    2132    2134 1       1.03090000e+02    5.20322240e+02
   2109    2108    2110 1       1.14760000e+02    3.49364000e+02
   2109    2108    2132 1       1.13690000e+02    3.54217440e+02
   2110    2108    2132 1       1.22490000e+02    4.75804480e+02
   2110    2112    2113 1       1.12000000e+02    3.56811520e+02
   2110    2112    2114 1       9.60300000e+01    5.40070720e+02
   2110    2112    2134 1       1.03090000e+02    5.20322240e+02
   2110    2137    2138 1       1.20640000e+02    5.08439680e+02
   2111    2110    2112 1       1.13690000e+02    3.54217440e+02
   2111    2110    2137 1       1.14530000e+02    3.58485120e+02
   2112    2110    2137 1       1.24830000e+02    4.77729120e+02
   2112    2114    2115 1       1.13690000e+02    3.54217440e+02
   2112    2114    2116 1       1.24830000e+02    4.77729120e+02
   2112    2114    2130 1       1.22490000e+02    4.75804480e+02
   2112    2134    2132 1       1.03830000e+02    5.17477120e+02
   2112    2134    2135 1       1.11170000e+02    3.56895200e+02
   2112    2134    2136 1       1.11170000e+02    3.56895200e+02
   2113    2112    2114 1       1.12000000e+02    3.56811520e+02
   2113    2112    2134 1       1.11170000e+02    3.56895200e+02
   2114    2112    2134 1       1.03090000e+02    5.20322240e+02
   2114    2116    2117 1       1.20640000e+02    5.08439680e+02
   2114    2116    2125 1       1.20640000e+02    5.08439680e+02
   2114    2130    2117 1       1.16810000e+02    4.91368960e+02
   2114    2130    2131 1       1.14760000e+02    3.49364000e+02
   2114    2130    2132 1       1.22490000e+02    4.75804480e+02
   2115    2114    2116 1       1.14530000e+02    3.58485120e+02
   2115    2114    2130 1       1.14760000e+02    3.49364000e+02
   2116    2114    2130 1       1.16810000e+02    4.91368960e+02
   2116    2117    2118 1       1.20020000e+02    5.32790560e+02
   2116    2117    2130 1       1.20640000e+02    5.08439680e+02
   2116    2125    2124 1       1.20020000e+02    5.32790560e+02
   2116    2125    2126 1       1.20830000e+02    5.08272320e+02
   2117    2116    2125 1       1.20020000e+02    5.32790560e+02
   2117    2118    2119 1       1.20830000e+02    5.08272320e+02
   2117    2118    2123 1       1.20020000e+02    5.32790560e+02
   2117    2130    2131 1       1.14530000e+02    3.58485120e+02
   2117    2130    2132 1       1.24830000e+02    4.77729120e+02
   2118    2117    2130 1       1.20640000e+02    5.08439680e+02
   2118    2119    2120 1       1.10630000e+02    3.64928480e+02
   2118    2119    2121 1       1.10630000e+02    3.64928480e+02
   2118    2119    2122 1       1.10630000e+02    3.64928480e+02
   2118    2123    2124 1       1.20020000e+02    5.32790560e+02
   2118    2123    5129 1       1.20640000e+02    5.08439680e+02
   2119    2118    2123 1       1.20830000e+02    5.08272320e+02
   2120    2119    2121 1       1.07730000e+02    2.99574400e+02
   2120    2119    2122 1       1.07730000e+02    2.99574400e+02
   2121    2119    2122 1       1.07730000e+02    2.99574400e+02
   2123    2124    2125 1       1.20020000e+02    5.32790560e+02
   2123    2124    5127 1       1.20640000e+02    5.08439680e+02
   2123    5129    5127 1       1.16810000e+02    4.91368960e+02
   2123    5129    5130 1       1.14530000e+02    3.58485120e+02
   2124    2123    5129 1       1.20640000e+02    5.08439680e+02
   2124    5127    5128 1       1.14530000e+02    3.58485120e+02
   2124    5127    5129 1       1.16810000e+02    4.91368960e+02
   2125    2124    5127 1       1.20640000e+02    5.08439680e+02
   2125    2126    2127 1       1.10630000e+02    3.64928480e+02
   2125    2126    2128 1       1.10630000e+02    3.64928480e+02
   2125    2126    2129 1       1.10630000e+02    3.64928480e+02
   2126    2125    2124 1       1.20830000e+02    5.08272320e+02
   2127    2126    2128 1       1.07730000e+02    2.99574400e+02
   2127    2126    2129 1       1.07730000e+02    2.99574400e+02
   2128    2126    2129 1       1.07730000e+02    2.99574400e+02
   2130    2132    2133 1       1.12000000e+02    3.56811520e+02
   2130    2132    2134 1       1.03090000e+02    5.20322240e+02
   2131    2130    2132 1       1.13690000e+02    3.54217440e+02
   2132    2134    2135 1       1.11170000e+02    3.56895200e+02
   2132    2134    2136 1       1.11170000e+02    3.56895200e+02
   2133    2132    2134 1       1.11170000e+02    3.56895200e+02
   2135    2134    2136 1       1.07220000e+02    3.00494880e+02
   2137    2138    2139 1       1.19880000e+02    3.75723200e+02
   2140    2144    2145 1       1.10280000e+02    5.05761920e+02
   2140    2144    2149 1       1.13070000e+02    5.03000480e+02
   2140    2144    2173 1       1.13070000e+02    5.03000480e+02
   2141    2140    2142 1       1.07730000e+02    2.99574400e+02
   2141    2140    2143 1       1.07730000e+02    2.99574400e+02
   2141    2140    2144 1       1.10530000e+02    3.60326080e+02
   2142    2140    2143 1       1.07730000e+02    2.99574400e+02
   2142    2140    2144 1       1.10530000e+02    3.60326080e+02
   2143    2140    2144 1       1.10530000e+02    3.60326080e+02
   2144    2145    2146 1       1.10530000e+02    3.60326080e+02
   2144    2145    2147 1       1.10530000e+02    3.60326080e+02
   2144    2145    2148 1       1.10530000e+02    3.60326080e+02
   2144    2149    2150 1       1.10210000e+02    5.31033280e+02
   2144    2149    2170 1       1.21870000e+02    5.06012960e+02
   2144    2173    2172 1       1.10210000e+02    5.31033280e+02
   2144    2173    2174 1       1.21870000e+02    5.06012960e+02
   2145    2144    2149 1       1.13070000e+02    5.03000480e+02
   2145    2144    2173 1       1.13070000e+02    5.03000480e+02
   2146    2145    2147 1       1.07730000e+02    2.99574400e+02
   2146    2145    2148 1       1.07730000e+02    2.99574400e+02
   2147    2145    2148 1       1.07730000e+02    2.99574400e+02
   2149    2144    2173 1       1.12520000e+02    5.08021280e+02
   2149    2150    2151 1       1.18410000e+02    5.33794720e+02
   2149    2150    2172 1       1.21100000e+02    5.12958400e+02
   2149    2170    2169 1       1.20020000e+02    5.32790560e+02
   2149    2170    2171 1       1.19880000e+02    3.75723200e+02
   2150    2149    2170 1       1.20730000e+02    5.29945440e+02
   2150    2151    2152 1       1.19820000e+02    3.74300640e+02
   2150    2151    2153 1       1.20730000e+02    5.29945440e+02
   2150    2172    2173 1       1.21100000e+02    5.12958400e+02
   2150    2172    2207 1       1.21100000e+02    5.12958400e+02
   2151    2150    2172 1       1.21100000e+02    5.12958400e+02
   2151    2153    2154 1       1.20640000e+02    5.08439680e+02
   2151    2153    2169 1       1.20020000e+02    5.32790560e+02
   2152    2151    2153 1       1.19880000e+02    3.75723200e+02
   2153    2154    2155 1       1.14530000e+02    3.58485120e+02
   2153    2154    2156 1       1.16810000e+02    4.91368960e+02
   2153    2154    2164 1       1.24830000e+02    4.77729120e+02
   2153    2169    2156 1       1.20640000e+02    5.08439680e+02
   2153    2169    2170 1       1.20020000e+02    5.32790560e+02
   2154    2153    2169 1       1.20640000e+02    5.08439680e+02
   2154    2156    2157 1       1.14760000e+02    3.49364000e+02
   2154    2156    2158 1       1.22490000e+02    4.75804480e+02
   2154    2156    2169 1       1.16810000e+02    4.91368960e+02
   2154    2164    2162 1       9.60300000e+01    5.40070720e+02
   2154    2164    2165 1       1.12000000e+02    3.56811520e+02
   2154    2164    2166 1       1.03090000e+02    5.20322240e+02
   2155    2154    2156 1       1.14760000e+02    3.49364000e+02
   2155    2154    2164 1       1.13690000e+02    3.54217440e+02
   2156    2154    2164 1       1.22490000e+02    4.75804480e+02
   2156    2158    2159 1       1.12000000e+02    3.56811520e+02
   2156    2158    2160 1       9.60300000e+01    5.40070720e+02
   2156    2158    2166 1       1.03090000e+02    5.20322240e+02
   2156    2169    2170 1       1.20640000e+02    5.08439680e+02
   2157    2156    2158 1       1.13690000e+02    3.54217440e+02
   2157    2156    2169 1       1.14530000e+02    3.58485120e+02
   2158    2156    2169 1       1.24830000e+02    4.77729120e+02
   2158    2160    2161 1       1.13690000e+02    3.54217440e+02
   2158    2160    2162 1       1.22490000e+02    4.75804480e+02
   2158    2160    3641 1       1.24830000e+02    4.77729120e+02
   2158    2166    2164 1       1.03830000e+02    5.17477120e+02
   2158    2166    2167 1       1.11170000e+02    3.56895200e+02
   2158    2166    2168 1       1.11170000e+02    3.56895200e+02
   2159    2158    2166 1       1.11170000e+02    3.56895200e+02
   2160    2158    2159 1       1.12000000e+02    3.56811520e+02
   2160    2162    2163 1       1.14760000e+02    3.49364000e+02
   2162    2160    2161 1       1.14760000e+02    3.49364000e+02
   2162    2164    2165 1       1.12000000e+02    3.56811520e+02
   2164    2162    2160 1       1.22490000e+02    4.75804480e+02
   2164    2162    2163 1       1.13690000e+02    3.54217440e+02
   2164    2162    3642 1       1.24830000e+02    4.77729120e+02
   2164    2166    2167 1       1.11170000e+02    3.56895200e+02
   2164    2166    2168 1       1.11170000e+02    3.56895200e+02
   2165    2164    2166 1       1.11170000e+02    3.56895200e+02
   2166    2158    2160 1       1.03090000e+02    5.20322240e+02
   2166    2164    2162 1       1.03090000e+02    5.20322240e+02
   2167    2166    2168 1       1.07220000e+02    3.00494880e+02
   2169    2170    2171 1       1.19880000e+02    3.75723200e+02
   2172    2173    2174 1       1.20730000e+02    5.29945440e+02
   2172    2207    2206 1       1.20730000e+02    5.29945440e+02
   2172    2207    2208 1       1.19820000e+02    3.74300640e+02
   2173    2172    2207 1       1.18410000e+02    5.33794720e+02
   2173    2174    2175 1       1.19880000e+02    3.75723200e+02
   2173    2174    2176 1       1.20020000e+02    5.32790560e+02
   2174    2176    2177 1       1.20640000e+02    5.08439680e+02
   2174    2176    2206 1       1.20020000e+02    5.32790560e+02
   2175    2174    2176 1       1.19880000e+02    3.75723200e+02
   2176    2177    2178 1       1.14530000e+02    3.58485120e+02
   2176    2177    2179 1       1.16810000e+02    4.91368960e+02
   2176    2177    2201 1       1.24830000e+02    4.77729120e+02
   2176    2206    2179 1       1.20640000e+02    5.08439680e+02
   2176    2206    2207 1       1.20020000e+02    5.32790560e+02
   2177    2176    2206 1       1.20640000e+02    5.08439680e+02
   2177    2179    2180 1       1.14760000e+02    3.49364000e+02
   2177    2179    2181 1       1.22490000e+02    4.75804480e+02
   2177    2179    2206 1       1.16810000e+02    4.91368960e+02
   2177    2201    2199 1       9.60300000e+01    5.40070720e+02
   2177    2201    2202 1       1.12000000e+02    3.56811520e+02
   2177    2201    2203 1       1.03090000e+02    5.20322240e+02
   2178    2177    2179 1       1.14760000e+02    3.49364000e+02
   2178    2177    2201 1       1.13690000e+02    3.54217440e+02
   2179    2177    2201 1       1.22490000e+02    4.75804480e+02
   2179    2181    2182 1       1.12000000e+02    3.56811520e+02
   2179    2181    2183 1       9.60300000e+01    5.40070720e+02
   2179    2181    2203 1       1.03090000e+02    5.20322240e+02
   2179    2206    2207 1       1.20640000e+02    5.08439680e+02
   2180    2179    2181 1       1.13690000e+02    3.54217440e+02
   2180    2179    2206 1       1.14530000e+02    3.58485120e+02
   2181    2179    2206 1       1.24830000e+02    4.77729120e+02
   2181    2183    2184 1       1.13690000e+02    3.54217440e+02
   2181    2183    2185 1       1.24830000e+02    4.77729120e+02
   2181    2183    2199 1       1.22490000e+02    4.75804480e+02
   2181    2203    2201 1       1.03830000e+02    5.17477120e+02
   2181    2203    2204 1       1.11170000e+02    3.56895200e+02
   2181    2203    2205 1       1.11170000e+02    3.56895200e+02
   2182    2181    2183 1       1.12000000e+02    3.56811520e+02
   2182    2181    2203 1       1.11170000e+02    3.56895200e+02
   2183    2181    2203 1       1.03090000e+02    5.20322240e+02
   2183    2185    2186 1       1.20640000e+02    5.08439680e+02
   2183    2185    2194 1       1.20640000e+02    5.08439680e+02
   2183    2199    2186 1       1.16810000e+02    4.91368960e+02
   2183    2199    2200 1       1.14760000e+02    3.49364000e+02
   2183    2199    2201 1       1.22490000e+02    4.75804480e+02
   2184    2183    2185 1       1.14530000e+02    3.58485120e+02
   2184    2183    2199 1       1.14760000e+02    3.49364000e+02
   2185    2183    2199 1       1.16810000e+02    4.91368960e+02
   2185    2186    2187 1       1.20020000e+02    5.32790560e+02
   2185    2186    2199 1       1.20640000e+02    5.08439680e+02
   2185    2194    2193 1       1.20020000e+02    5.32790560e+02
   2185    2194    2195 1       1.20830000e+02    5.08272320e+02
   2186    2185    2194 1       1.20020000e+02    5.32790560e+02
   2186    2187    2188 1       1.20830000e+02    5.08272320e+02
   2186    2187    2192 1       1.20020000e+02    5.32790560e+02
   2186    2199    2200 1       1.14530000e+02    3.58485120e+02
   2186    2199    2201 1       1.24830000e+02    4.77729120e+02
   2187    2186    2199 1       1.20640000e+02    5.08439680e+02
   2187    2188    2189 1       1.10630000e+02    3.64928480e+02
   2187    2188    2190 1       1.10630000e+02    3.64928480e+02
   2187    2188    2191 1       1.10630000e+02    3.64928480e+02
   2187    2192    2193 1       1.20020000e+02    5.32790560e+02
   2187    2192    4851 1       1.20640000e+02    5.08439680e+02
   2188    2187    2192 1       1.20830000e+02    5.08272320e+02
   2189    2188    2190 1       1.07730000e+02    2.99574400e+02
   2189    2188    2191 1       1.07730000e+02    2.99574400e+02
   2190    2188    2191 1       1.07730000e+02    2.99574400e+02
   2192    2193    2194 1       1.20020000e+02    5.32790560e+02
   2192    2193    4853 1       1.20640000e+02    5.08439680e+02
   2192    4851    4852 1       1.14530000e+02    3.58485120e+02
   2192    4851    4853 1       1.16810000e+02    4.91368960e+02
   2193    2192    4851 1       1.20640000e+02    5.08439680e+02
   2193    4853    4851 1       1.16810000e+02    4.91368960e+02
   2193    4853    4854 1       1.14530000e+02    3.58485120e+02
   2194    2193    4853 1       1.20640000e+02    5.08439680e+02
   2194    2195    2196 1       1.10630000e+02    3.64928480e+02
   2194    2195    2197 1       1.10630000e+02    3.64928480e+02
   2194    2195    2198 1       1.10630000e+02    3.64928480e+02
   2195    2194    2193 1       1.20830000e+02    5.08272320e+02
   2196    2195    2197 1       1.07730000e+02    2.99574400e+02
   2196    2195    2198 1       1.07730000e+02    2.99574400e+02
   2197    2195    2198 1       1.07730000e+02    2.99574400e+02
   2199    2201    2202 1       1.12000000e+02    3.56811520e+02
   2199    2201    2203 1       1.03090000e+02    5.20322240e+02
   2200    2199    2201 1       1.13690000e+02    3.54217440e+02
   2201    2203    2204 1       1.11170000e+02    3.56895200e+02
   2201    2203    2205 1       1.11170000e+02    3.56895200e+02
   2202    2201    2203 1       1.11170000e+02    3.56895200e+02
   2204    2203    2205 1       1.07220000e+02    3.00494880e+02
   2206    2207    2208 1       1.19880000e+02    3.75723200e+02
   2209    2213    2214 1       1.10280000e+02    5.05761920e+02
   2209    2213    2218 1       1.13070000e+02    5.03000480e+02
   2209    2213    2242 1       1.13070000e+02    5.03000480e+02
   2210    2209    2211 1       1.07730000e+02    2.99574400e+02
   2210    2209    2212 1       1.07730000e+02    2.99574400e+02
   2210    2209    2213 1       1.10530000e+02    3.60326080e+02
   2211    2209    2212 1       1.07730000e+02    2.99574400e+02
   2211    2209    2213 1       1.10530000e+02    3.60326080e+02
   2212    2209    2213 1       1.10530000e+02    3.60326080e+02
   2213    2214    2215 1       1.10530000e+02    3.60326080e+02
   2213    2214    2216 1       1.10530000e+02    3.60326080e+02
   2213    2214    2217 1       1.10530000e+02    3.60326080e+02
   2213    2218    2219 1       1.10210000e+02    5.31033280e+02
   2213    2218    2239 1       1.21870000e+02    5.06012960e+02
   2213    2242    2241 1       1.10210000e+02    5.31033280e+02
   2213    2242    2243 1       1.21870000e+02    5.06012960e+02
   2214    2213    2218 1       1.13070000e+02    5.03000480e+02
   2214    2213    2242 1       1.13070000e+02    5.03000480e+02
   2215    2214    2216 1       1.07730000e+02    2.99574400e+02
   2215    2214    2217 1       1.07730000e+02    2.99574400e+02
   2216    2214    2217 1       1.07730000e+02    2.99574400e+02
   2218    2213    2242 1       1.12520000e+02    5.08021280e+02
   2218    2219    2220 1       1.18410000e+02    5.33794720e+02
   2218    2219    2241 1       1.21100000e+02    5.12958400e+02
   2218    2239    2238 1       1.20020000e+02    5.32790560e+02
   2218    2239    2240 1       1.19880000e+02    3.75723200e+02
   2219    2218    2239 1       1.20730000e+02    5.29945440e+02
   2219    2220    2221 1       1.19820000e+02    3.74300640e+02
   2219    2220    2222 1       1.20730000e+02    5.29945440e+02
   2219    2241    2242 1       1.21100000e+02    5.12958400e+02
   2219    2241    2276 1       1.21100000e+02    5.12958400e+02
   2220    2219    2241 1       1.21100000e+02    5.12958400e+02
   2220    2222    2223 1       1.20640000e+02    5.08439680e+02
   2220    2222    2238 1       1.20020000e+02    5.32790560e+02
   2221    2220    2222 1       1.19880000e+02    3.75723200e+02
   2222    2223    2224 1       1.14530000e+02    3.58485120e+02
   2222    2223    2225 1       1.16810000e+02    4.91368960e+02
   2222    2223    2233 1       1.24830000e+02    4.77729120e+02
   2222    2238    2225 1       1.20640000e+02    5.08439680e+02
   2222    2238    2239 1       1.20020000e+02    5.32790560e+02
   2223    2222    2238 1       1.20640000e+02    5.08439680e+02
   2223    2225    2226 1       1.14760000e+02    3.49364000e+02
   2223    2225    2227 1       1.22490000e+02    4.75804480e+02
   2223    2225    2238 1       1.16810000e+02    4.91368960e+02
   2223    2233    2231 1       9.60300000e+01    5.40070720e+02
   2223    2233    2234 1       1.12000000e+02    3.56811520e+02
   2223    2233    2235 1       1.03090000e+02    5.20322240e+02
   2224    2223    2225 1       1.14760000e+02    3.49364000e+02
   2224    2223    2233 1       1.13690000e+02    3.54217440e+02
   2225    2223    2233 1       1.22490000e+02    4.75804480e+02
   2225    2227    2228 1       1.12000000e+02    3.56811520e+02
   2225    2227    2229 1       9.60300000e+01    5.40070720e+02
   2225    2227    2235 1       1.03090000e+02    5.20322240e+02
   2225    2238    2239 1       1.20640000e+02    5.08439680e+02
   2226    2225    2227 1       1.13690000e+02    3.54217440e+02
   2226    2225    2238 1       1.14530000e+02    3.58485120e+02
   2227    2225    2238 1       1.24830000e+02    4.77729120e+02
   2227    2229    2230 1       1.13690000e+02    3.54217440e+02
   2227    2229    2231 1       1.22490000e+02    4.75804480e+02
   2227    2229    5091 1       1.24830000e+02    4.77729120e+02
   2227    2235    2233 1       1.03830000e+02    5.17477120e+02
   2227    2235    2236 1       1.11170000e+02    3.56895200e+02
   2227    2235    2237 1       1.11170000e+02    3.56895200e+02
   2228    2227    2235 1       1.11170000e+02    3.56895200e+02
   2229    2227    2228 1       1.12000000e+02    3.56811520e+02
   2229    2231    2232 1       1.14760000e+02    3.49364000e+02
   2231    2229    2230 1       1.14760000e+02    3.49364000e+02
   2231    2233    2234 1       1.12000000e+02    3.56811520e+02
   2233    2231    2229 1       1.22490000e+02    4.75804480e+02
   2233    2231    2232 1       1.13690000e+02    3.54217440e+02
   2233    2231    5090 1       1.24830000e+02    4.77729120e+02
   2233    2235    2236 1       1.11170000e+02    3.56895200e+02
   2233    2235    2237 1       1.11170000e+02    3.56895200e+02
   2234    2233    2235 1       1.11170000e+02    3.56895200e+02
   2235    2227    2229 1       1.03090000e+02    5.20322240e+02
   2235    2233    2231 1       1.03090000e+02    5.20322240e+02
   2236    2235    2237 1       1.07220000e+02    3.00494880e+02
   2238    2239    2240 1       1.19880000e+02    3.75723200e+02
   2241    2242    2243 1       1.20730000e+02    5.29945440e+02
   2241    2276    2275 1       1.20730000e+02    5.29945440e+02
   2241    2276    2277 1       1.19820000e+02    3.74300640e+02
   2242    2241    2276 1       1.18410000e+02    5.33794720e+02
   2242    2243    2244 1       1.19880000e+02    3.75723200e+02
   2242    2243    2245 1       1.20020000e+02    5.32790560e+02
   2243    2245    2246 1       1.20640000e+02    5.08439680e+02
   2243    2245    2275 1       1.20020000e+02    5.32790560e+02
   2244    2243    2245 1       1.19880000e+02    3.75723200e+02
   2245    2246    2247 1       1.14530000e+02    3.58485120e+02
   2245    2246    2248 1       1.16810000e+02    4.91368960e+02
   2245    2246    2270 1       1.24830000e+02    4.77729120e+02
   2245    2275    2248 1       1.20640000e+02    5.08439680e+02
   2245    2275    2276 1       1.20020000e+02    5.32790560e+02
   2246    2245    2275 1       1.20640000e+02    5.08439680e+02
   2246    2248    2249 1       1.14760000e+02    3.49364000e+02
   2246    2248    2250 1       1.22490000e+02    4.75804480e+02
   2246    2248    2275 1       1.16810000e+02    4.91368960e+02
   2246    2270    2268 1       9.60300000e+01    5.40070720e+02
   2246    2270    2271 1       1.12000000e+02    3.56811520e+02
   2246    2270    2272 1       1.03090000e+02    5.20322240e+02
   2247    2246    2248 1       1.14760000e+02    3.49364000e+02
   2247    2246    2270 1       1.13690000e+02    3.54217440e+02
   2248    2246    2270 1       1.22490000e+02    4.75804480e+02
   2248    2250    2251 1       1.12000000e+02    3.56811520e+02
   2248    2250    2252 1       9.60300000e+01    5.40070720e+02
   2248    2250    2272 1       1.03090000e+02    5.20322240e+02
   2248    2275    2276 1       1.20640000e+02    5.08439680e+02
   2249    2248    2250 1       1.13690000e+02    3.54217440e+02
   2249    2248    2275 1       1.14530000e+02    3.58485120e+02
   2250    2248    2275 1       1.24830000e+02    4.77729120e+02
   2250    2252    2253 1       1.13690000e+02    3.54217440e+02
   2250    2252    2254 1       1.24830000e+02    4.77729120e+02
   2250    2252    2268 1       1.22490000e+02    4.75804480e+02
   2250    2272    2270 1       1.03830000e+02    5.17477120e+02
   2250    2272    2273 1       1.11170000e+02    3.56895200e+02
   2250    2272    2274 1       1.11170000e+02    3.56895200e+02
   2251    2250    2252 1       1.12000000e+02    3.56811520e+02
   2251    2250    2272 1       1.11170000e+02    3.56895200e+02
   2252    2250    2272 1       1.03090000e+02    5.20322240e+02
   2252    2254    2255 1       1.20640000e+02    5.08439680e+02
   2252    2254    2263 1       1.20640000e+02    5.08439680e+02
   2252    2268    2255 1       1.16810000e+02    4.91368960e+02
   2252    2268    2269 1       1.14760000e+02    3.49364000e+02
   2252    2268    2270 1       1.22490000e+02    4.75804480e+02
   2253    2252    2254 1       1.14530000e+02    3.58485120e+02
   2253    2252    2268 1       1.14760000e+02    3.49364000e+02
   2254    2252    2268 1       1.16810000e+02    4.91368960e+02
   2254    2255    2256 1       1.20020000e+02    5.32790560e+02
   2254    2255    2268 1       1.20640000e+02    5.08439680e+02
   2254    2263    2262 1       1.20020000e+02    5.32790560e+02
   2254    2263    2264 1       1.20830000e+02    5.08272320e+02
   2255    2254    2263 1       1.20020000e+02    5.32790560e+02
   2255    2256    2257 1       1.20830000e+02    5.08272320e+02
   2255    2256    2261 1       1.20020000e+02    5.32790560e+02
   2255    2268    2269 1       1.14530000e+02    3.58485120e+02
   2255    2268    2270 1       1.24830000e+02    4.77729120e+02
   2256    2255    2268 1       1.20640000e+02    5.08439680e+02
   2256    2257    2258 1       1.10630000e+02    3.64928480e+02
   2256    2257    2259 1       1.10630000e+02    3.64928480e+02
   2256    2257    2260 1       1.10630000e+02    3.64928480e+02
   2256    2261    2262 1       1.20020000e+02    5.32790560e+02
   2256    2261    6507 1       1.20640000e+02    5.08439680e+02
   2257    2256    2261 1       1.20830000e+02    5.08272320e+02
   2258    2257    2259 1       1.07730000e+02    2.99574400e+02
   2258    2257    2260 1       1.07730000e+02    2.99574400e+02
   2259    2257    2260 1       1.07730000e+02    2.99574400e+02
   2261    2262    2263 1       1.20020000e+02    5.32790560e+02
   2261    2262    6509 1       1.20640000e+02    5.08439680e+02
   2261    6507    6508 1       1.14530000e+02    3.58485120e+02
   2261    6507    6509 1       1.16810000e+02    4.91368960e+02
   2262    2261    6507 1       1.20640000e+02    5.08439680e+02
   2262    6509    6507 1       1.16810000e+02    4.91368960e+02
   2262    6509    6510 1       1.14530000e+02    3.58485120e+02
   2263    2262    6509 1       1.20640000e+02    5.08439680e+02
   2263    2264    2265 1       1.10630000e+02    3.64928480e+02
   2263    2264    2266 1       1.10630000e+02    3.64928480e+02
   2263    2264    2267 1       1.10630000e+02    3.64928480e+02
   2264    2263    2262 1       1.20830000e+02    5.08272320e+02
   2265    2264    2266 1       1.07730000e+02    2.99574400e+02
   2265    2264    2267 1       1.07730000e+02    2.99574400e+02
   2266    2264    2267 1       1.07730000e+02    2.99574400e+02
   2268    2270    2271 1       1.12000000e+02    3.56811520e+02
   2268    2270    2272 1       1.03090000e+02    5.20322240e+02
   2269    2268    2270 1       1.13690000e+02    3.54217440e+02
   2270    2272    2273 1       1.11170000e+02    3.56895200e+02
   2270    2272    2274 1       1.11170000e+02    3.56895200e+02
   2271    2270    2272 1       1.11170000e+02    3.56895200e+02
   2273    2272    2274 1       1.07220000e+02    3.00494880e+02
   2275    2276    2277 1       1.19880000e+02    3.75723200e+02
   2278    2282    2283 1       1.10280000e+02    5.05761920e+02
   2278    2282    2287 1       1.13070000e+02    5.03000480e+02
   2278    2282    2311 1       1.13070000e+02    5.03000480e+02
   2279    2278    2280 1       1.07730000e+02    2.99574400e+02
   2279    2278    2281 1       1.07730000e+02    2.99574400e+02
   2279    2278    2282 1       1.10530000e+02    3.60326080e+02
   2280    2278    2281 1       1.07730000e+02    2.99574400e+02
   2280    2278    2282 1       1.10530000e+02    3.60326080e+02
   2281    2278    2282 1       1.10530000e+02    3.60326080e+02
   2282    2283    2284 1       1.10530000e+02    3.60326080e+02
   2282    2283    2285 1       1.10530000e+02    3.60326080e+02
   2282    2283    2286 1       1.10530000e+02    3.60326080e+02
   2282    2287    2288 1       1.10210000e+02    5.31033280e+02
   2282    2287    2308 1       1.21870000e+02    5.06012960e+02
   2282    2311    2310 1       1.10210000e+02    5.31033280e+02
   2282    2311    2312 1       1.21870000e+02    5.06012960e+02
   2283    2282    2287 1       1.13070000e+02    5.03000480e+02
   2283    2282    2311 1       1.13070000e+02    5.03000480e+02
   2284    2283    2285 1       1.07730000e+02    2.99574400e+02
   2284    2283    2286 1       1.07730000e+02    2.99574400e+02
   2285    2283    2286 1       1.07730000e+02    2.99574400e+02
   2287    2282    2311 1       1.12520000e+02    5.08021280e+02
   2287    2288    2289 1       1.18410000e+02    5.33794720e+02
   2287    2288    2310 1       1.21100000e+02    5.12958400e+02
   2287    2308    2307 1       1.20020000e+02    5.32790560e+02
   2287    2308    2309 1       1.19880000e+02    3.75723200e+02
   2288    2287    2308 1       1.20730000e+02    5.29945440e+02
   2288    2289    2290 1       1.19820000e+02    3.74300640e+02
   2288    2289    2291 1       1.20730000e+02    5.29945440e+02
   2288    2310    2311 1       1.21100000e+02    5.12958400e+02
   2288    2310    2345 1       1.21100000e+02    5.12958400e+02
   2289    2288    2310 1       1.21100000e+02    5.12958400e+02
   2289    2291    2292 1       1.20640000e+02    5.08439680e+02
   2289    2291    2307 1       1.20020000e+02    5.32790560e+02
   2290    2289    2291 1       1.19880000e+02    3.75723200e+02
   2291    2292    2293 1       1.14530000e+02    3.58485120e+02
   2291    2292    2294 1       1.16810000e+02    4.91368960e+02
   2291    2292    2302 1       1.24830000e+02    4.77729120e+02
   2291    2307    2294 1       1.20640000e+02    5.08439680e+02
   2291    2307    2308 1       1.20020000e+02    5.32790560e+02
   2292    2291    2307 1       1.20640000e+02    5.08439680e+02
   2292    2294    2295 1       1.14760000e+02    3.49364000e+02
   2292    2294    2296 1       1.22490000e+02    4.75804480e+02
   2292    2294    2307 1       1.16810000e+02    4.91368960e+02
   2292    2302    2300 1       9.60300000e+01    5.40070720e+02
   2292    2302    2303 1       1.12000000e+02    3.56811520e+02
   2292    2302    2304 1       1.03090000e+02    5.20322240e+02
   2293    2292    2294 1       1.14760000e+02    3.49364000e+02
   2293    2292    2302 1       1.13690000e+02    3.54217440e+02
   2294    2292    2302 1       1.22490000e+02    4.75804480e+02
   2294    2296    2297 1       1.12000000e+02    3.56811520e+02
   2294    2296    2298 1       9.60300000e+01    5.40070720e+02
   2294    2296    2304 1       1.03090000e+02    5.20322240e+02
   2294    2307    2308 1       1.20640000e+02    5.08439680e+02
   2295    2294    2296 1       1.13690000e+02    3.54217440e+02
   2295    2294    2307 1       1.14530000e+02    3.58485120e+02
   2296    2294    2307 1       1.24830000e+02    4.77729120e+02
   2296    2298    2299 1       1.13690000e+02    3.54217440e+02
   2296    2298    2300 1       1.22490000e+02    4.75804480e+02
   2296    2298    6608 1       1.24830000e+02    4.77729120e+02
   2296    2304    2302 1       1.03830000e+02    5.17477120e+02
   2296    2304    2305 1       1.11170000e+02    3.56895200e+02
   2296    2304    2306 1       1.11170000e+02    3.56895200e+02
   2297    2296    2304 1       1.11170000e+02    3.56895200e+02
   2298    2296    2297 1       1.12000000e+02    3.56811520e+02
   2298    2300    2301 1       1.14760000e+02    3.49364000e+02
   2300    2298    2299 1       1.14760000e+02    3.49364000e+02
   2300    2302    2303 1       1.12000000e+02    3.56811520e+02
   2302    2300    2298 1       1.22490000e+02    4.75804480e+02
   2302    2300    2301 1       1.13690000e+02    3.54217440e+02
   2302    2300    6609 1       1.24830000e+02    4.77729120e+02
   2302    2304    2305 1       1.11170000e+02    3.56895200e+02
   2302    2304    2306 1       1.11170000e+02    3.56895200e+02
   2303    2302    2304 1       1.11170000e+02    3.56895200e+02
   2304    2296    2298 1       1.03090000e+02    5.20322240e+02
   2304    2302    2300 1       1.03090000e+02    5.20322240e+02
   2305    2304    2306 1       1.07220000e+02    3.00494880e+02
   2307    2308    2309 1       1.19880000e+02    3.75723200e+02
   2310    2311    2312 1       1.20730000e+02    5.29945440e+02
   2310    2345    2344 1       1.20730000e+02    5.29945440e+02
   2310    2345    2346 1       1.19820000e+02    3.74300640e+02
   2311    2310    2345 1       1.18410000e+02    5.33794720e+02
   2311    2312    2313 1       1.19880000e+02    3.75723200e+02
   2311    2312    2314 1       1.20020000e+02    5.32790560e+02
   2312    2314    2315 1       1.20640000e+02    5.08439680e+02
   2312    2314    2344 1       1.20020000e+02    5.32790560e+02
   2313    2312    2314 1       1.19880000e+02    3.75723200e+02
   2314    2315    2316 1       1.14530000e+02    3.58485120e+02
   2314    2315    2317 1       1.16810000e+02    4.91368960e+02
   2314    2315    2339 1       1.24830000e+02    4.77729120e+02
   2314    2344    2317 1       1.20640000e+02    5.08439680e+02
   2314    2344    2345 1       1.20020000e+02    5.32790560e+02
   2315    2314    2344 1       1.20640000e+02    5.08439680e+02
   2315    2317    2318 1       1.14760000e+02    3.49364000e+02
   2315    2317    2319 1       1.22490000e+02    4.75804480e+02
   2315    2317    2344 1       1.16810000e+02    4.91368960e+02
   2315    2339    2337 1       9.60300000e+01    5.40070720e+02
   2315    2339    2340 1       1.12000000e+02    3.56811520e+02
   2315    2339    2341 1       1.03090000e+02    5.20322240e+02
   2316    2315    2317 1       1.14760000e+02    3.49364000e+02
   2316    2315    2339 1       1.13690000e+02    3.54217440e+02
   2317    2315    2339 1       1.22490000e+02    4.75804480e+02
   2317    2319    2320 1       1.12000000e+02    3.56811520e+02
   2317    2319    2321 1       9.60300000e+01    5.40070720e+02
   2317    2319    2341 1       1.03090000e+02    5.20322240e+02
   2317    2344    2345 1       1.20640000e+02    5.08439680e+02
   2318    2317    2319 1       1.13690000e+02    3.54217440e+02
   2318    2317    2344 1       1.14530000e+02    3.58485120e+02
   2319    2317    2344 1       1.24830000e+02    4.77729120e+02
   2319    2321    2322 1       1.13690000e+02    3.54217440e+02
   2319    2321    2323 1       1.24830000e+02    4.77729120e+02
   2319    2321    2337 1       1.22490000e+02    4.75804480e+02
   2319    2341    2339 1       1.03830000e+02    5.17477120e+02
   2319    2341    2342 1       1.11170000e+02    3.56895200e+02
   2319    2341    2343 1       1.11170000e+02    3.56895200e+02
   2320    2319    2321 1       1.12000000e+02    3.56811520e+02
   2320    2319    2341 1       1.11170000e+02    3.56895200e+02
   2321    2319    2341 1       1.03090000e+02    5.20322240e+02
   2321    2323    2324 1       1.20640000e+02    5.08439680e+02
   2321    2323    2332 1       1.20640000e+02    5.08439680e+02
   2321    2337    2324 1       1.16810000e+02    4.91368960e+02
   2321    2337    2338 1       1.14760000e+02    3.49364000e+02
   2321    2337    2339 1       1.22490000e+02    4.75804480e+02
   2322    2321    2323 1       1.14530000e+02    3.58485120e+02
   2322    2321    2337 1       1.14760000e+02    3.49364000e+02
   2323    2321    2337 1       1.16810000e+02    4.91368960e+02
   2323    2324    2325 1       1.20020000e+02    5.32790560e+02
   2323    2324    2337 1       1.20640000e+02    5.08439680e+02
   2323    2332    2331 1       1.20020000e+02    5.32790560e+02
   2323    2332    2333 1       1.20830000e+02    5.08272320e+02
   2324    2323    2332 1       1.20020000e+02    5.32790560e+02
   2324    2325    2326 1       1.20830000e+02    5.08272320e+02
   2324    2325    2330 1       1.20020000e+02    5.32790560e+02
   2324    2337    2338 1       1.14530000e+02    3.58485120e+02
   2324    2337    2339 1       1.24830000e+02    4.77729120e+02
   2325    2324    2337 1       1.20640000e+02    5.08439680e+02
   2325    2326    2327 1       1.10630000e+02    3.64928480e+02
   2325    2326    2328 1       1.10630000e+02    3.64928480e+02
   2325    2326    2329 1       1.10630000e+02    3.64928480e+02
   2325    2330    2331 1       1.20020000e+02    5.32790560e+02
   2325    2330    3264 1       1.20640000e+02    5.08439680e+02
   2326    2325    2330 1       1.20830000e+02    5.08272320e+02
   2327    2326    2328 1       1.07730000e+02    2.99574400e+02
   2327    2326    2329 1       1.07730000e+02    2.99574400e+02
   2328    2326    2329 1       1.07730000e+02    2.99574400e+02
   2330    2331    2332 1       1.20020000e+02    5.32790560e+02
   2330    2331    3266 1       1.20640000e+02    5.08439680e+02
   2330    3264    3265 1       1.14530000e+02    3.58485120e+02
   2330    3264    3266 1       1.16810000e+02    4.91368960e+02
   2331    2330    3264 1       1.20640000e+02    5.08439680e+02
   2331    3266    3264 1       1.16810000e+02    4.91368960e+02
   2331    3266    3267 1       1.14530000e+02    3.58485120e+02
   2332    2331    3266 1       1.20640000e+02    5.08439680e+02
   2332    2333    2334 1       1.10630000e+02    3.64928480e+02
   2332    2333    2335 1       1.10630000e+02    3.64928480e+02
   2332    2333    2336 1       1.10630000e+02    3.64928480e+02
   2333    2332    2331 1       1.20830000e+02    5.08272320e+02
   2334    2333    2335 1       1.07730000e+02    2.99574400e+02
   2334    2333    2336 1       1.07730000e+02    2.99574400e+02
   2335    2333    2336 1       1.07730000e+02    2.99574400e+02
   2337    2339    2340 1       1.12000000e+02    3.56811520e+02
   2337    2339    2341 1       1.03090000e+02    5.20322240e+02
   2338    2337    2339 1       1.13690000e+02    3.54217440e+02
   2339    2341    2342 1       1.11170000e+02    3.56895200e+02
   2339    2341    2343 1       1.11170000e+02    3.56895200e+02
   2340    2339    2341 1       1.11170000e+02    3.56895200e+02
   2342    2341    2343 1       1.07220000e+02    3.00494880e+02
   2344    2345    2346 1       1.19880000e+02    3.75723200e+02
   2347    2351    2352 1       1.10280000e+02    5.05761920e+02
   2347    2351    2356 1       1.13070000e+02    5.03000480e+02
   2347    2351    2380 1       1.13070000e+02    5.03000480e+02
   2348    2347    2349 1       1.07730000e+02    2.99574400e+02
   2348    2347    2350 1       1.07730000e+02    2.99574400e+02
   2348    2347    2351 1       1.10530000e+02    3.60326080e+02
   2349    2347    2350 1       1.07730000e+02    2.99574400e+02
   2349    2347    2351 1       1.10530000e+02    3.60326080e+02
   2350    2347    2351 1       1.10530000e+02    3.60326080e+02
   2351    2352    2353 1       1.10530000e+02    3.60326080e+02
   2351    2352    2354 1       1.10530000e+02    3.60326080e+02
   2351    2352    2355 1       1.10530000e+02    3.60326080e+02
   2351    2356    2357 1       1.10210000e+02    5.31033280e+02
   2351    2356    2377 1       1.21870000e+02    5.06012960e+02
   2351    2380    2379 1       1.10210000e+02    5.31033280e+02
   2351    2380    2381 1       1.21870000e+02    5.06012960e+02
   2352    2351    2356 1       1.13070000e+02    5.03000480e+02
   2352    2351    2380 1       1.13070000e+02    5.03000480e+02
   2353    2352    2354 1       1.07730000e+02    2.99574400e+02
   2353    2352    2355 1       1.07730000e+02    2.99574400e+02
   2354    2352    2355 1       1.07730000e+02    2.99574400e+02
   2356    2351    2380 1       1.12520000e+02    5.08021280e+02
   2356    2357    2358 1       1.18410000e+02    5.33794720e+02
   2356    2357    2379 1       1.21100000e+02    5.12958400e+02
   2356    2377    2376 1       1.20020000e+02    5.32790560e+02
   2356    2377    2378 1       1.19880000e+02    3.75723200e+02
   2357    2356    2377 1       1.20730000e+02    5.29945440e+02
   2357    2358    2359 1       1.19820000e+02    3.74300640e+02
   2357    2358    2360 1       1.20730000e+02    5.29945440e+02
   2357    2379    2380 1       1.21100000e+02    5.12958400e+02
   2357    2379    2414 1       1.21100000e+02    5.12958400e+02
   2358    2357    2379 1       1.21100000e+02    5.12958400e+02
   2358    2360    2361 1       1.20640000e+02    5.08439680e+02
   2358    2360    2376 1       1.20020000e+02    5.32790560e+02
   2359    2358    2360 1       1.19880000e+02    3.75723200e+02
   2360    2361    2362 1       1.14530000e+02    3.58485120e+02
   2360    2361    2363 1       1.16810000e+02    4.91368960e+02
   2360    2361    2371 1       1.24830000e+02    4.77729120e+02
   2360    2376    2363 1       1.20640000e+02    5.08439680e+02
   2360    2376    2377 1       1.20020000e+02    5.32790560e+02
   2361    2360    2376 1       1.20640000e+02    5.08439680e+02
   2361    2363    2364 1       1.14760000e+02    3.49364000e+02
   2361    2363    2365 1       1.22490000e+02    4.75804480e+02
   2361    2363    2376 1       1.16810000e+02    4.91368960e+02
   2361    2371    2369 1       9.60300000e+01    5.40070720e+02
   2361    2371    2372 1       1.12000000e+02    3.56811520e+02
   2361    2371    2373 1       1.03090000e+02    5.20322240e+02
   2362    2361    2363 1       1.14760000e+02    3.49364000e+02
   2362    2361    2371 1       1.13690000e+02    3.54217440e+02
   2363    2361    2371 1       1.22490000e+02    4.75804480e+02
   2363    2365    2366 1       1.12000000e+02    3.56811520e+02
   2363    2365    2367 1       9.60300000e+01    5.40070720e+02
   2363    2365    2373 1       1.03090000e+02    5.20322240e+02
   2363    2376    2377 1       1.20640000e+02    5.08439680e+02
   2364    2363    2365 1       1.13690000e+02    3.54217440e+02
   2364    2363    2376 1       1.14530000e+02    3.58485120e+02
   2365    2363    2376 1       1.24830000e+02    4.77729120e+02
   2365    2367     743 1       1.24830000e+02    4.77729120e+02
   2365    2367    2368 1       1.13690000e+02    3.54217440e+02
   2365    2367    2369 1       1.22490000e+02    4.75804480e+02
   2365    2373    2371 1       1.03830000e+02    5.17477120e+02
   2365    2373    2374 1       1.11170000e+02    3.56895200e+02
   2365    2373    2375 1       1.11170000e+02    3.56895200e+02
   2366    2365    2373 1       1.11170000e+02    3.56895200e+02
   2367    2365    2366 1       1.12000000e+02    3.56811520e+02
   2367    2369    2370 1       1.14760000e+02    3.49364000e+02
   2369    2367    2368 1       1.14760000e+02    3.49364000e+02
   2369    2371    2372 1       1.12000000e+02    3.56811520e+02
   2371    2369     744 1       1.24830000e+02    4.77729120e+02
   2371    2369    2367 1       1.22490000e+02    4.75804480e+02
   2371    2369    2370 1       1.13690000e+02    3.54217440e+02
   2371    2373    2374 1       1.11170000e+02    3.56895200e+02
   2371    2373    2375 1       1.11170000e+02    3.56895200e+02
   2372    2371    2373 1       1.11170000e+02    3.56895200e+02
   2373    2365    2367 1       1.03090000e+02    5.20322240e+02
   2373    2371    2369 1       1.03090000e+02    5.20322240e+02
   2374    2373    2375 1       1.07220000e+02    3.00494880e+02
   2376    2377    2378 1       1.19880000e+02    3.75723200e+02
   2379    2380    2381 1       1.20730000e+02    5.29945440e+02
   2379    2414    2413 1       1.20730000e+02    5.29945440e+02
   2379    2414    2415 1       1.19820000e+02    3.74300640e+02
   2380    2379    2414 1       1.18410000e+02    5.33794720e+02
   2380    2381    2382 1       1.19880000e+02    3.75723200e+02
   2380    2381    2383 1       1.20020000e+02    5.32790560e+02
   2381    2383    2384 1       1.20640000e+02    5.08439680e+02
   2381    2383    2413 1       1.20020000e+02    5.32790560e+02
   2382    2381    2383 1       1.19880000e+02    3.75723200e+02
   2383    2384    2385 1       1.14530000e+02    3.58485120e+02
   2383    2384    2386 1       1.16810000e+02    4.91368960e+02
   2383    2384    2408 1       1.24830000e+02    4.77729120e+02
   2383    2413    2386 1       1.20640000e+02    5.08439680e+02
   2383    2413    2414 1       1.20020000e+02    5.32790560e+02
   2384    2383    2413 1       1.20640000e+02    5.08439680e+02
   2384    2386    2387 1       1.14760000e+02    3.49364000e+02
   2384    2386    2388 1       1.22490000e+02    4.75804480e+02
   2384    2386    2413 1       1.16810000e+02    4.91368960e+02
   2384    2408    2406 1       9.60300000e+01    5.40070720e+02
   2384    2408    2409 1       1.12000000e+02    3.56811520e+02
   2384    2408    2410 1       1.03090000e+02    5.20322240e+02
   2385    2384    2386 1       1.14760000e+02    3.49364000e+02
   2385    2384    2408 1       1.13690000e+02    3.54217440e+02
   2386    2384    2408 1       1.22490000e+02    4.75804480e+02
   2386    2388    2389 1       1.12000000e+02    3.56811520e+02
   2386    2388    2390 1       9.60300000e+01    5.40070720e+02
   2386    2388    2410 1       1.03090000e+02    5.20322240e+02
   2386    2413    2414 1       1.20640000e+02    5.08439680e+02
   2387    2386    2388 1       1.13690000e+02    3.54217440e+02
   2387    2386    2413 1       1.14530000e+02    3.58485120e+02
   2388    2386    2413 1       1.24830000e+02    4.77729120e+02
   2388    2390    2391 1       1.13690000e+02    3.54217440e+02
   2388    2390    2392 1       1.24830000e+02    4.77729120e+02
   2388    2390    2406 1       1.22490000e+02    4.75804480e+02
   2388    2410    2408 1       1.03830000e+02    5.17477120e+02
   2388    2410    2411 1       1.11170000e+02    3.56895200e+02
   2388    2410    2412 1       1.11170000e+02    3.56895200e+02
   2389    2388    2390 1       1.12000000e+02    3.56811520e+02
   2389    2388    2410 1       1.11170000e+02    3.56895200e+02
   2390    2388    2410 1       1.03090000e+02    5.20322240e+02
   2390    2392    2393 1       1.20640000e+02    5.08439680e+02
   2390    2392    2401 1       1.20640000e+02    5.08439680e+02
   2390    2406    2393 1       1.16810000e+02    4.91368960e+02
   2390    2406    2407 1       1.14760000e+02    3.49364000e+02
   2390    2406    2408 1       1.22490000e+02    4.75804480e+02
   2391    2390    2392 1       1.14530000e+02    3.58485120e+02
   2391    2390    2406 1       1.14760000e+02    3.49364000e+02
   2392    2390    2406 1       1.16810000e+02    4.91368960e+02
   2392    2393    2394 1       1.20020000e+02    5.32790560e+02
   2392    2393    2406 1       1.20640000e+02    5.08439680e+02
   2392    2401    2400 1       1.20020000e+02    5.32790560e+02
   2392    2401    2402 1       1.20830000e+02    5.08272320e+02
   2393    2392    2401 1       1.20020000e+02    5.32790560e+02
   2393    2394    2395 1       1.20830000e+02    5.08272320e+02
   2393    2394    2399 1       1.20020000e+02    5.32790560e+02
   2393    2406    2407 1       1.14530000e+02    3.58485120e+02
   2393    2406    2408 1       1.24830000e+02    4.77729120e+02
   2394    2393    2406 1       1.20640000e+02    5.08439680e+02
   2394    2395    2396 1       1.10630000e+02    3.64928480e+02
   2394    2395    2397 1       1.10630000e+02    3.64928480e+02
   2394    2395    2398 1       1.10630000e+02    3.64928480e+02
   2394    2399     644 1       1.20640000e+02    5.08439680e+02
   2394    2399    2400 1       1.20020000e+02    5.32790560e+02
   2395    2394    2399 1       1.20830000e+02    5.08272320e+02
   2396    2395    2397 1       1.07730000e+02    2.99574400e+02
   2396    2395    2398 1       1.07730000e+02    2.99574400e+02
   2397    2395    2398 1       1.07730000e+02    2.99574400e+02
   2399     644     642 1       1.16810000e+02    4.91368960e+02
   2399     644     645 1       1.14530000e+02    3.58485120e+02
   2399    2400     642 1       1.20640000e+02    5.08439680e+02
   2399    2400    2401 1       1.20020000e+02    5.32790560e+02
   2400     642     643 1       1.14530000e+02    3.58485120e+02
   2400     642     644 1       1.16810000e+02    4.91368960e+02
   2400    2399     644 1       1.20640000e+02    5.08439680e+02
   2401    2400     642 1       1.20640000e+02    5.08439680e+02
   2401    2402    2403 1       1.10630000e+02    3.64928480e+02
   2401    2402    2404 1       1.10630000e+02    3.64928480e+02
   2401    2402    2405 1       1.10630000e+02    3.64928480e+02
   2402    2401    2400 1       1.20830000e+02    5.08272320e+02
   2403    2402    2404 1       1.07730000e+02    2.99574400e+02
   2403    2402    2405 1       1.07730000e+02    2.99574400e+02
   2404    2402    2405 1       1.07730000e+02    2.99574400e+02
   2406    2408    2409 1       1.12000000e+02    3.56811520e+02
   2406    2408    2410 1       1.03090000e+02    5.20322240e+02
   2407    2406    2408 1       1.13690000e+02    3.54217440e+02
   2408    2410    2411 1       1.11170000e+02    3.56895200e+02
   2408    2410    2412 1       1.11170000e+02    3.56895200e+02
   2409    2408    2410 1       1.11170000e+02    3.56895200e+02
   2411    2410    2412 1       1.07220000e+02    3.00494880e+02
   2413    2414    2415 1       1.19880000e+02    3.75723200e+02
   2416    2420    2421 1       1.10280000e+02    5.05761920e+02
   2416    2420    2425 1       1.13070000e+02    5.03000480e+02
   2416    2420    2449 1       1.13070000e+02    5.03000480e+02
   2417    2416    2418 1       1.07730000e+02    2.99574400e+02
   2417    2416    2419 1       1.07730000e+02    2.99574400e+02
   2417    2416    2420 1       1.10530000e+02    3.60326080e+02
   2418    2416    2419 1       1.07730000e+02    2.99574400e+02
   2418    2416    2420 1       1.10530000e+02    3.60326080e+02
   2419    2416    2420 1       1.10530000e+02    3.60326080e+02
   2420    2421    2422 1       1.10530000e+02    3.60326080e+02
   2420    2421    2423 1       1.10530000e+02    3.60326080e+02
   2420    2421    2424 1       1.10530000e+02    3.60326080e+02
   2420    2425    2426 1       1.10210000e+02    5.31033280e+02
   2420    2425    2446 1       1.21870000e+02    5.06012960e+02
   2420    2449    2448 1       1.10210000e+02    5.31033280e+02
   2420    2449    2450 1       1.21870000e+02    5.06012960e+02
   2421    2420    2425 1       1.13070000e+02    5.03000480e+02
   2421    2420    2449 1       1.13070000e+02    5.03000480e+02
   2422    2421    2423 1       1.07730000e+02    2.99574400e+02
   2422    2421    2424 1       1.07730000e+02    2.99574400e+02
   2423    2421    2424 1       1.07730000e+02    2.99574400e+02
   2425    2420    2449 1       1.12520000e+02    5.08021280e+02
   2425    2426    2427 1       1.18410000e+02    5.33794720e+02
   2425    2426    2448 1       1.21100000e+02    5.12958400e+02
   2425    2446    2445 1       1.20020000e+02    5.32790560e+02
   2425    2446    2447 1       1.19880000e+02    3.75723200e+02
   2426    2425    2446 1       1.20730000e+02    5.29945440e+02
   2426    2427    2428 1       1.19820000e+02    3.74300640e+02
   2426    2427    2429 1       1.20730000e+02    5.29945440e+02
   2426    2448    2449 1       1.21100000e+02    5.12958400e+02
   2426    2448    2483 1       1.21100000e+02    5.12958400e+02
   2427    2426    2448 1       1.21100000e+02    5.12958400e+02
   2427    2429    2430 1       1.20640000e+02    5.08439680e+02
   2427    2429    2445 1       1.20020000e+02    5.32790560e+02
   2428    2427    2429 1       1.19880000e+02    3.75723200e+02
   2429    2430    2431 1       1.14530000e+02    3.58485120e+02
   2429    2430    2432 1       1.16810000e+02    4.91368960e+02
   2429    2430    2440 1       1.24830000e+02    4.77729120e+02
   2429    2445    2432 1       1.20640000e+02    5.08439680e+02
   2429    2445    2446 1       1.20020000e+02    5.32790560e+02
   2430    2429    2445 1       1.20640000e+02    5.08439680e+02
   2430    2432    2433 1       1.14760000e+02    3.49364000e+02
   2430    2432    2434 1       1.22490000e+02    4.75804480e+02
   2430    2432    2445 1       1.16810000e+02    4.91368960e+02
   2430    2440    2438 1       9.60300000e+01    5.40070720e+02
   2430    2440    2441 1       1.12000000e+02    3.56811520e+02
   2430    2440    2442 1       1.03090000e+02    5.20322240e+02
   2431    2430    2432 1       1.14760000e+02    3.49364000e+02
   2431    2430    2440 1       1.13690000e+02    3.54217440e+02
   2432    2430    2440 1       1.22490000e+02    4.75804480e+02
   2432    2434    2435 1       1.12000000e+02    3.56811520e+02
   2432    2434    2436 1       9.60300000e+01    5.40070720e+02
   2432    2434    2442 1       1.03090000e+02    5.20322240e+02
   2432    2445    2446 1       1.20640000e+02    5.08439680e+02
   2433    2432    2434 1       1.13690000e+02    3.54217440e+02
   2433    2432    2445 1       1.14530000e+02    3.58485120e+02
   2434    2432    2445 1       1.24830000e+02    4.77729120e+02
   2434    2436    2437 1       1.13690000e+02    3.54217440e+02
   2434    2436    2438 1       1.22490000e+02    4.75804480e+02
   2434    2436    4125 1       1.24830000e+02    4.77729120e+02
   2434    2442    2440 1       1.03830000e+02    5.17477120e+02
   2434    2442    2443 1       1.11170000e+02    3.56895200e+02
   2434    2442    2444 1       1.11170000e+02    3.56895200e+02
   2435    2434    2442 1       1.11170000e+02    3.56895200e+02
   2436    2434    2435 1       1.12000000e+02    3.56811520e+02
   2436    2438    2439 1       1.14760000e+02    3.49364000e+02
   2438    2436    2437 1       1.14760000e+02    3.49364000e+02
   2438    2440    2441 1       1.12000000e+02    3.56811520e+02
   2440    2438    2436 1       1.22490000e+02    4.75804480e+02
   2440    2438    2439 1       1.13690000e+02    3.54217440e+02
   2440    2438    4124 1       1.24830000e+02    4.77729120e+02
   2440    2442    2443 1       1.11170000e+02    3.56895200e+02
   2440    2442    2444 1       1.11170000e+02    3.56895200e+02
   2441    2440    2442 1       1.11170000e+02    3.56895200e+02
   2442    2434    2436 1       1.03090000e+02    5.20322240e+02
   2442    2440    2438 1       1.03090000e+02    5.20322240e+02
   2443    2442    2444 1       1.07220000e+02    3.00494880e+02
   2445    2446    2447 1       1.19880000e+02    3.75723200e+02
   2448    2449    2450 1       1.20730000e+02    5.29945440e+02
   2448    2483    2482 1       1.20730000e+02    5.29945440e+02
   2448    2483    2484 1       1.19820000e+02    3.74300640e+02
   2449    2448    2483 1       1.18410000e+02    5.33794720e+02
   2449    2450    2451 1       1.19880000e+02    3.75723200e+02
   2449    2450    2452 1       1.20020000e+02    5.32790560e+02
   2450    2452    2453 1       1.20640000e+02    5.08439680e+02
   2450    2452    2482 1       1.20020000e+02    5.32790560e+02
   2451    2450    2452 1       1.19880000e+02    3.75723200e+02
   2452    2453    2454 1       1.14530000e+02    3.58485120e+02
   2452    2453    2455 1       1.16810000e+02    4.91368960e+02
   2452    2453    2477 1       1.24830000e+02    4.77729120e+02
   2452    2482    2455 1       1.20640000e+02    5.08439680e+02
   2452    2482    2483 1       1.20020000e+02    5.32790560e+02
   2453    2452    2482 1       1.20640000e+02    5.08439680e+02
   2453    2455    2456 1       1.14760000e+02    3.49364000e+02
   2453    2455    2457 1       1.22490000e+02    4.75804480e+02
   2453    2455    2482 1       1.16810000e+02    4.91368960e+02
   2453    2477    2475 1       9.60300000e+01    5.40070720e+02
   2453    2477    2478 1       1.12000000e+02    3.56811520e+02
   2453    2477    2479 1       1.03090000e+02    5.20322240e+02
   2454    2453    2455 1       1.14760000e+02    3.49364000e+02
   2454    2453    2477 1       1.13690000e+02    3.54217440e+02
   2455    2453    2477 1       1.22490000e+02    4.75804480e+02
   2455    2457    2458 1       1.12000000e+02    3.56811520e+02
   2455    2457    2459 1       9.60300000e+01    5.40070720e+02
   2455    2457    2479 1       1.03090000e+02    5.20322240e+02
   2455    2482    2483 1       1.20640000e+02    5.08439680e+02
   2456    2455    2457 1       1.13690000e+02    3.54217440e+02
   2456    2455    2482 1       1.14530000e+02    3.58485120e+02
   2457    2455    2482 1       1.24830000e+02    4.77729120e+02
   2457    2459    2460 1       1.13690000e+02    3.54217440e+02
   2457    2459    2461 1       1.24830000e+02    4.77729120e+02
   2457    2459    2475 1       1.22490000e+02    4.75804480e+02
   2457    2479    2477 1       1.03830000e+02    5.17477120e+02
   2457    2479    2480 1       1.11170000e+02    3.56895200e+02
   2457    2479    2481 1       1.11170000e+02    3.56895200e+02
   2458    2457    2459 1       1.12000000e+02    3.56811520e+02
   2458    2457    2479 1       1.11170000e+02    3.56895200e+02
   2459    2457    2479 1       1.03090000e+02    5.20322240e+02
   2459    2461    2462 1       1.20640000e+02    5.08439680e+02
   2459    2461    2470 1       1.20640000e+02    5.08439680e+02
   2459    2475    2462 1       1.16810000e+02    4.91368960e+02
   2459    2475    2476 1       1.14760000e+02    3.49364000e+02
   2459    2475    2477 1       1.22490000e+02    4.75804480e+02
   2460    2459    2461 1       1.14530000e+02    3.58485120e+02
   2460    2459    2475 1       1.14760000e+02    3.49364000e+02
   2461    2459    2475 1       1.16810000e+02    4.91368960e+02
   2461    2462    2463 1       1.20020000e+02    5.32790560e+02
   2461    2462    2475 1       1.20640000e+02    5.08439680e+02
   2461    2470    2469 1       1.20020000e+02    5.32790560e+02
   2461    2470    2471 1       1.20830000e+02    5.08272320e+02
   2462    2461    2470 1       1.20020000e+02    5.32790560e+02
   2462    2463    2464 1       1.20830000e+02    5.08272320e+02
   2462    2463    2468 1       1.20020000e+02    5.32790560e+02
   2462    2475    2476 1       1.14530000e+02    3.58485120e+02
   2462    2475    2477 1       1.24830000e+02    4.77729120e+02
   2463    2462    2475 1       1.20640000e+02    5.08439680e+02
   2463    2464    2465 1       1.10630000e+02    3.64928480e+02
   2463    2464    2466 1       1.10630000e+02    3.64928480e+02
   2463    2464    2467 1       1.10630000e+02    3.64928480e+02
   2463    2468    1196 1       1.20640000e+02    5.08439680e+02
   2463    2468    2469 1       1.20020000e+02    5.32790560e+02
   2464    2463    2468 1       1.20830000e+02    5.08272320e+02
   2465    2464    2466 1       1.07730000e+02    2.99574400e+02
   2465    2464    2467 1       1.07730000e+02    2.99574400e+02
   2466    2464    2467 1       1.07730000e+02    2.99574400e+02
   2468    1196    1194 1       1.16810000e+02    4.91368960e+02
   2468    1196    1197 1       1.14530000e+02    3.58485120e+02
   2468    2469    1194 1       1.20640000e+02    5.08439680e+02
   2468    2469    2470 1       1.20020000e+02    5.32790560e+02
   2469    1194    1195 1       1.14530000e+02    3.58485120e+02
   2469    1194    1196 1       1.16810000e+02    4.91368960e+02
   2469    2468    1196 1       1.20640000e+02    5.08439680e+02
   2470    2469    1194 1       1.20640000e+02    5.08439680e+02
   2470    2471    2472 1       1.10630000e+02    3.64928480e+02
   2470    2471    2473 1       1.10630000e+02    3.64928480e+02
   2470    2471    2474 1       1.10630000e+02    3.64928480e+02
   2471    2470    2469 1       1.20830000e+02    5.08272320e+02
   2472    2471    2473 1       1.07730000e+02    2.99574400e+02
   2472    2471    2474 1       1.07730000e+02    2.99574400e+02
   2473    2471    2474 1       1.07730000e+02    2.99574400e+02
   2475    2477    2478 1       1.12000000e+02    3.56811520e+02
   2475    2477    2479 1       1.03090000e+02    5.20322240e+02
   2476    2475    2477 1       1.13690000e+02    3.54217440e+02
   2477    2479    2480 1       1.11170000e+02    3.56895200e+02
   2477    2479    2481 1       1.11170000e+02    3.56895200e+02
   2478    2477    2479 1       1.11170000e+02    3.56895200e+02
   2480    2479    2481 1       1.07220000e+02    3.00494880e+02
   2482    2483    2484 1       1.19880000e+02    3.75723200e+02
   2485    2489    2490 1       1.10280000e+02    5.05761920e+02
   2485    2489    2494 1       1.13070000e+02    5.03000480e+02
   2485    2489    2518 1       1.13070000e+02    5.03000480e+02
   2486    2485    2487 1       1.07730000e+02    2.99574400e+02
   2486    2485    2488 1       1.07730000e+02    2.99574400e+02
   2486    2485    2489 1       1.10530000e+02    3.60326080e+02
   2487    2485    2488 1       1.07730000e+02    2.99574400e+02
   2487    2485    2489 1       1.10530000e+02    3.60326080e+02
   2488    2485    2489 1       1.10530000e+02    3.60326080e+02
   2489    2490    2491 1       1.10530000e+02    3.60326080e+02
   2489    2490    2492 1       1.10530000e+02    3.60326080e+02
   2489    2490    2493 1       1.10530000e+02    3.60326080e+02
   2489    2494    2495 1       1.10210000e+02    5.31033280e+02
   2489    2494    2515 1       1.21870000e+02    5.06012960e+02
   2489    2518    2517 1       1.10210000e+02    5.31033280e+02
   2489    2518    2519 1       1.21870000e+02    5.06012960e+02
   2490    2489    2494 1       1.13070000e+02    5.03000480e+02
   2490    2489    2518 1       1.13070000e+02    5.03000480e+02
   2491    2490    2492 1       1.07730000e+02    2.99574400e+02
   2491    2490    2493 1       1.07730000e+02    2.99574400e+02
   2492    2490    2493 1       1.07730000e+02    2.99574400e+02
   2494    2489    2518 1       1.12520000e+02    5.08021280e+02
   2494    2495    2496 1       1.18410000e+02    5.33794720e+02
   2494    2495    2517 1       1.21100000e+02    5.12958400e+02
   2494    2515    2514 1       1.20020000e+02    5.32790560e+02
   2494    2515    2516 1       1.19880000e+02    3.75723200e+02
   2495    2494    2515 1       1.20730000e+02    5.29945440e+02
   2495    2496    2497 1       1.19820000e+02    3.74300640e+02
   2495    2496    2498 1       1.20730000e+02    5.29945440e+02
   2495    2517    2518 1       1.21100000e+02    5.12958400e+02
   2495    2517    2552 1       1.21100000e+02    5.12958400e+02
   2496    2495    2517 1       1.21100000e+02    5.12958400e+02
   2496    2498    2499 1       1.20640000e+02    5.08439680e+02
   2496    2498    2514 1       1.20020000e+02    5.32790560e+02
   2497    2496    2498 1       1.19880000e+02    3.75723200e+02
   2498    2499    2500 1       1.14530000e+02    3.58485120e+02
   2498    2499    2501 1       1.16810000e+02    4.91368960e+02
   2498    2499    2509 1       1.24830000e+02    4.77729120e+02
   2498    2514    2501 1       1.20640000e+02    5.08439680e+02
   2498    2514    2515 1       1.20020000e+02    5.32790560e+02
   2499    2498    2514 1       1.20640000e+02    5.08439680e+02
   2499    2501    2502 1       1.14760000e+02    3.49364000e+02
   2499    2501    2503 1       1.22490000e+02    4.75804480e+02
   2499    2501    2514 1       1.16810000e+02    4.91368960e+02
   2499    2509    2507 1       1.03090000e+02    5.20322240e+02
   2499    2509    2510 1       1.12000000e+02    3.56811520e+02
   2499    2509    2511 1       1.03090000e+02    5.20322240e+02
   2500    2499    2501 1       1.14760000e+02    3.49364000e+02
   2500    2499    2509 1       1.13690000e+02    3.54217440e+02
   2501    2499    2509 1       1.22490000e+02    4.75804480e+02
   2501    2503    2504 1       1.12000000e+02    3.56811520e+02
   2501    2503    2505 1       1.03090000e+02    5.20322240e+02
   2501    2503    2511 1       1.03090000e+02    5.20322240e+02
   2501    2514    2515 1       1.20640000e+02    5.08439680e+02
   2502    2501    2503 1       1.13690000e+02    3.54217440e+02
   2502    2501    2514 1       1.14530000e+02    3.58485120e+02
   2503    2501    2514 1       1.24830000e+02    4.77729120e+02
   2503    2505    2506 1       1.11170000e+02    3.56895200e+02
   2503    2505    2507 1       1.03830000e+02    5.17477120e+02
   2503    2511    2509 1       1.03830000e+02    5.17477120e+02
   2503    2511    2512 1       1.11170000e+02    3.56895200e+02
   2503    2511    2513 1       1.11170000e+02    3.56895200e+02
   2504    2503    2505 1       1.11170000e+02    3.56895200e+02
   2504    2503    2511 1       1.11170000e+02    3.56895200e+02
   2505    2503    2511 1       1.03830000e+02    5.17477120e+02
   2505    2507    2508 1       1.11170000e+02    3.56895200e+02
   2505    2507    2509 1       1.03830000e+02    5.17477120e+02
   2506    2505    2507 1       1.11170000e+02    3.56895200e+02
   2507    2509    2510 1       1.11170000e+02    3.56895200e+02
   2507    2509    2511 1       1.03830000e+02    5.17477120e+02
   2508    2507    2509 1       1.11170000e+02    3.56895200e+02
   2509    2511    2512 1       1.11170000e+02    3.56895200e+02
   2509    2511    2513 1       1.11170000e+02    3.56895200e+02
   2510    2509    2511 1       1.11170000e+02    3.56895200e+02
   2512    2511    2513 1       1.07220000e+02    3.00494880e+02
   2514    2515    2516 1       1.19880000e+02    3.75723200e+02
   2517    2518    2519 1       1.20730000e+02    5.29945440e+02
   2517    2552    2551 1       1.20730000e+02    5.29945440e+02
   2517    2552    2553 1       1.19820000e+02    3.74300640e+02
   2518    2517    2552 1       1.18410000e+02    5.33794720e+02
   2518    2519    2520 1       1.19880000e+02    3.75723200e+02
   2518    2519    2521 1       1.20020000e+02    5.32790560e+02
   2519    2521    2522 1       1.20640000e+02    5.08439680e+02
   2519    2521    2551 1       1.20020000e+02    5.32790560e+02
   2520    2519    2521 1       1.19880000e+02    3.75723200e+02
   2521    2522    2523 1       1.14530000e+02    3.58485120e+02
   2521    2522    2524 1       1.16810000e+02    4.91368960e+02
   2521    2522    2546 1       1.24830000e+02    4.77729120e+02
   2521    2551    2524 1       1.20640000e+02    5.08439680e+02
   2521    2551    2552 1       1.20020000e+02    5.32790560e+02
   2522    2521    2551 1       1.20640000e+02    5.08439680e+02
   2522    2524    2525 1       1.14760000e+02    3.49364000e+02
   2522    2524    2526 1       1.22490000e+02    4.75804480e+02
   2522    2524    2551 1       1.16810000e+02    4.91368960e+02
   2522    2546    2544 1       9.60300000e+01    5.40070720e+02
   2522    2546    2547 1       1.12000000e+02    3.56811520e+02
   2522    2546    2548 1       1.03090000e+02    5.20322240e+02
   2523    2522    2524 1       1.14760000e+02    3.49364000e+02
   2523    2522    2546 1       1.13690000e+02    3.54217440e+02
   2524    2522    2546 1       1.22490000e+02    4.75804480e+02
   2524    2526    2527 1       1.12000000e+02    3.56811520e+02
   2524    2526    2528 1       9.60300000e+01    5.40070720e+02
   2524    2526    2548 1       1.03090000e+02    5.20322240e+02
   2524    2551    2552 1       1.20640000e+02    5.08439680e+02
   2525    2524    2526 1       1.13690000e+02    3.54217440e+02
   2525    2524    2551 1       1.14530000e+02    3.58485120e+02
   2526    2524    2551 1       1.24830000e+02    4.77729120e+02
   2526    2528    2529 1       1.13690000e+02    3.54217440e+02
   2526    2528    2530 1       1.24830000e+02    4.77729120e+02
   2526    2528    2544 1       1.22490000e+02    4.75804480e+02
   2526    2548    2546 1       1.03830000e+02    5.17477120e+02
   2526    2548    2549 1       1.11170000e+02    3.56895200e+02
   2526    2548    2550 1       1.11170000e+02    3.56895200e+02
   2527    2526    2528 1       1.12000000e+02    3.56811520e+02
   2527    2526    2548 1       1.11170000e+02    3.56895200e+02
   2528    2526    2548 1       1.03090000e+02    5.20322240e+02
   2528    2530    2531 1       1.20640000e+02    5.08439680e+02
   2528    2530    2539 1       1.20640000e+02    5.08439680e+02
   2528    2544    2531 1       1.16810000e+02    4.91368960e+02
   2528    2544    2545 1       1.14760000e+02    3.49364000e+02
   2528    2544    2546 1       1.22490000e+02    4.75804480e+02
   2529    2528    2530 1       1.14530000e+02    3.58485120e+02
   2529    2528    2544 1       1.14760000e+02    3.49364000e+02
   2530    2528    2544 1       1.16810000e+02    4.91368960e+02
   2530    2531    2532 1       1.20020000e+02    5.32790560e+02
   2530    2531    2544 1       1.20640000e+02    5.08439680e+02
   2530    2539    2538 1       1.20020000e+02    5.32790560e+02
   2530    2539    2540 1       1.20830000e+02    5.08272320e+02
   2531    2530    2539 1       1.20020000e+02    5.32790560e+02
   2531    2532    2533 1       1.20830000e+02    5.08272320e+02
   2531    2532    2537 1       1.20020000e+02    5.32790560e+02
   2531    2544    2545 1       1.14530000e+02    3.58485120e+02
   2531    2544    2546 1       1.24830000e+02    4.77729120e+02
   2532    2531    2544 1       1.20640000e+02    5.08439680e+02
   2532    2533    2534 1       1.10630000e+02    3.64928480e+02
   2532    2533    2535 1       1.10630000e+02    3.64928480e+02
   2532    2533    2536 1       1.10630000e+02    3.64928480e+02
   2532    2537    1884 1       1.20640000e+02    5.08439680e+02
   2532    2537    2538 1       1.20020000e+02    5.32790560e+02
   2533    2532    2537 1       1.20830000e+02    5.08272320e+02
   2534    2533    2535 1       1.07730000e+02    2.99574400e+02
   2534    2533    2536 1       1.07730000e+02    2.99574400e+02
   2535    2533    2536 1       1.07730000e+02    2.99574400e+02
   2537    1884    1885 1       1.14530000e+02    3.58485120e+02
   2537    1884    1886 1       1.16810000e+02    4.91368960e+02
   2537    2538    1886 1       1.20640000e+02    5.08439680e+02
   2537    2538    2539 1       1.20020000e+02    5.32790560e+02
   2538    1886    1884 1       1.16810000e+02    4.91368960e+02
   2538    1886    1887 1       1.14530000e+02    3.58485120e+02
   2538    2537    1884 1       1.20640000e+02    5.08439680e+02
   2539    2538    1886 1       1.20640000e+02    5.08439680e+02
   2539    2540    2541 1       1.10630000e+02    3.64928480e+02
   2539    2540    2542 1       1.10630000e+02    3.64928480e+02
   2539    2540    2543 1       1.10630000e+02    3.64928480e+02
   2540    2539    2538 1       1.20830000e+02    5.08272320e+02
   2541    2540    2542 1       1.07730000e+02    2.99574400e+02
   2541    2540    2543 1       1.07730000e+02    2.99574400e+02
   2542    2540    2543 1       1.07730000e+02    2.99574400e+02
   2544    2546    2547 1       1.12000000e+02    3.56811520e+02
   2544    2546    2548 1       1.03090000e+02    5.20322240e+02
   2545    2544    2546 1       1.13690000e+02    3.54217440e+02
   2546    2548    2549 1       1.11170000e+02    3.56895200e+02
   2546    2548    2550 1       1.11170000e+02    3.56895200e+02
   2547    2546    2548 1       1.11170000e+02    3.56895200e+02
   2549    2548    2550 1       1.07220000e+02    3.00494880e+02
   2551    2552    2553 1       1.19880000e+02    3.75723200e+02
   2554    2558    2559 1       1.10280000e+02    5.05761920e+02
   2554    2558    2563 1       1.13070000e+02    5.03000480e+02
   2554    2558    2587 1       1.13070000e+02    5.03000480e+02
   2555    2554    2556 1       1.07730000e+02    2.99574400e+02
   2555    2554    2557 1       1.07730000e+02    2.99574400e+02
   2555    2554    2558 1       1.10530000e+02    3.60326080e+02
   2556    2554    2557 1       1.07730000e+02    2.99574400e+02
   2556    2554    2558 1       1.10530000e+02    3.60326080e+02
   2557    2554    2558 1       1.10530000e+02    3.60326080e+02
   2558    2559    2560 1       1.10530000e+02    3.60326080e+02
   2558    2559    2561 1       1.10530000e+02    3.60326080e+02
   2558    2559    2562 1       1.10530000e+02    3.60326080e+02
   2558    2563    2564 1       1.10210000e+02    5.31033280e+02
   2558    2563    2584 1       1.21870000e+02    5.06012960e+02
   2558    2587    2586 1       1.10210000e+02    5.31033280e+02
   2558    2587    2588 1       1.21870000e+02    5.06012960e+02
   2559    2558    2563 1       1.13070000e+02    5.03000480e+02
   2559    2558    2587 1       1.13070000e+02    5.03000480e+02
   2560    2559    2561 1       1.07730000e+02    2.99574400e+02
   2560    2559    2562 1       1.07730000e+02    2.99574400e+02
   2561    2559    2562 1       1.07730000e+02    2.99574400e+02
   2563    2558    2587 1       1.12520000e+02    5.08021280e+02
   2563    2564    2565 1       1.18410000e+02    5.33794720e+02
   2563    2564    2586 1       1.21100000e+02    5.12958400e+02
   2563    2584    2583 1       1.20020000e+02    5.32790560e+02
   2563    2584    2585 1       1.19880000e+02    3.75723200e+02
   2564    2563    2584 1       1.20730000e+02    5.29945440e+02
   2564    2565    2566 1       1.19820000e+02    3.74300640e+02
   2564    2565    2567 1       1.20730000e+02    5.29945440e+02
   2564    2586    2587 1       1.21100000e+02    5.12958400e+02
   2564    2586    2621 1       1.21100000e+02    5.12958400e+02
   2565    2564    2586 1       1.21100000e+02    5.12958400e+02
   2565    2567    2568 1       1.20640000e+02    5.08439680e+02
   2565    2567    2583 1       1.20020000e+02    5.32790560e+02
   2566    2565    2567 1       1.19880000e+02    3.75723200e+02
   2567    2568    2569 1       1.14530000e+02    3.58485120e+02
   2567    2568    2570 1       1.16810000e+02    4.91368960e+02
   2567    2568    2578 1       1.24830000e+02    4.77729120e+02
   2567    2583    2570 1       1.20640000e+02    5.08439680e+02
   2567    2583    2584 1       1.20020000e+02    5.32790560e+02
   2568    2567    2583 1       1.20640000e+02    5.08439680e+02
   2568    2570    2571 1       1.14760000e+02    3.49364000e+02
   2568    2570    2572 1       1.22490000e+02    4.75804480e+02
   2568    2570    2583 1       1.16810000e+02    4.91368960e+02
   2568    2578    2576 1       9.60300000e+01    5.40070720e+02
   2568    2578    2579 1       1.12000000e+02    3.56811520e+02
   2568    2578    2580 1       1.03090000e+02    5.20322240e+02
   2569    2568    2570 1       1.14760000e+02    3.49364000e+02
   2569    2568    2578 1       1.13690000e+02    3.54217440e+02
   2570    2568    2578 1       1.22490000e+02    4.75804480e+02
   2570    2572    2573 1       1.12000000e+02    3.56811520e+02
   2570    2572    2574 1       9.60300000e+01    5.40070720e+02
   2570    2572    2580 1       1.03090000e+02    5.20322240e+02
   2570    2583    2584 1       1.20640000e+02    5.08439680e+02
   2571    2570    2572 1       1.13690000e+02    3.54217440e+02
   2571    2570    2583 1       1.14530000e+02    3.58485120e+02
   2572    2570    2583 1       1.24830000e+02    4.77729120e+02
   2572    2574     468 1       1.24830000e+02    4.77729120e+02
   2572    2574    2575 1       1.13690000e+02    3.54217440e+02
   2572    2574    2576 1       1.22490000e+02    4.75804480e+02
   2572    2580    2578 1       1.03830000e+02    5.17477120e+02
   2572    2580    2581 1       1.11170000e+02    3.56895200e+02
   2572    2580    2582 1       1.11170000e+02    3.56895200e+02
   2573    2572    2580 1       1.11170000e+02    3.56895200e+02
   2574    2572    2573 1       1.12000000e+02    3.56811520e+02
   2574    2576    2577 1       1.14760000e+02    3.49364000e+02
   2576    2574    2575 1       1.14760000e+02    3.49364000e+02
   2576    2578    2579 1       1.12000000e+02    3.56811520e+02
   2578    2576     467 1       1.24830000e+02    4.77729120e+02
   2578    2576    2574 1       1.22490000e+02    4.75804480e+02
   2578    2576    2577 1       1.13690000e+02    3.54217440e+02
   2578    2580    2581 1       1.11170000e+02    3.56895200e+02
   2578    2580    2582 1       1.11170000e+02    3.56895200e+02
   2579    2578    2580 1       1.11170000e+02    3.56895200e+02
   2580    2572    2574 1       1.03090000e+02    5.20322240e+02
   2580    2578    2576 1       1.03090000e+02    5.20322240e+02
   2581    2580    2582 1       1.07220000e+02    3.00494880e+02
   2583    2584    2585 1       1.19880000e+02    3.75723200e+02
   2586    2587    2588 1       1.20730000e+02    5.29945440e+02
   2586    2621    2620 1       1.20730000e+02    5.29945440e+02
   2586    2621    2622 1       1.19820000e+02    3.74300640e+02
   2587    2586    2621 1       1.18410000e+02    5.33794720e+02
   2587    2588    2589 1       1.19880000e+02    3.75723200e+02
   2587    2588    2590 1       1.20020000e+02    5.32790560e+02
   2588    2590    2591 1       1.20640000e+02    5.08439680e+02
   2588    2590    2620 1       1.20020000e+02    5.32790560e+02
   2589    2588    2590 1       1.19880000e+02    3.75723200e+02
   2590    2591    2592 1       1.14530000e+02    3.58485120e+02
   2590    2591    2593 1       1.16810000e+02    4.91368960e+02
   2590    2591    2615 1       1.24830000e+02    4.77729120e+02
   2590    2620    2593 1       1.20640000e+02    5.08439680e+02
   2590    2620    2621 1       1.20020000e+02    5.32790560e+02
   2591    2590    2620 1       1.20640000e+02    5.08439680e+02
   2591    2593    2594 1       1.14760000e+02    3.49364000e+02
   2591    2593    2595 1       1.22490000e+02    4.75804480e+02
   2591    2593    2620 1       1.16810000e+02    4.91368960e+02
   2591    2615    2613 1       9.60300000e+01    5.40070720e+02
   2591    2615    2616 1       1.12000000e+02    3.56811520e+02
   2591    2615    2617 1       1.03090000e+02    5.20322240e+02
   2592    2591    2593 1       1.14760000e+02    3.49364000e+02
   2592    2591    2615 1       1.13690000e+02    3.54217440e+02
   2593    2591    2615 1       1.22490000e+02    4.75804480e+02
   2593    2595    2596 1       1.12000000e+02    3.56811520e+02
   2593    2595    2597 1       9.60300000e+01    5.40070720e+02
   2593    2595    2617 1       1.03090000e+02    5.20322240e+02
   2593    2620    2621 1       1.20640000e+02    5.08439680e+02
   2594    2593    2595 1       1.13690000e+02    3.54217440e+02
   2594    2593    2620 1       1.14530000e+02    3.58485120e+02
   2595    2593    2620 1       1.24830000e+02    4.77729120e+02
   2595    2597    2598 1       1.13690000e+02    3.54217440e+02
   2595    2597    2599 1       1.24830000e+02    4.77729120e+02
   2595    2597    2613 1       1.22490000e+02    4.75804480e+02
   2595    2617    2615 1       1.03830000e+02    5.17477120e+02
   2595    2617    2618 1       1.11170000e+02    3.56895200e+02
   2595    2617    2619 1       1.11170000e+02    3.56895200e+02
   2596    2595    2597 1       1.12000000e+02    3.56811520e+02
   2596    2595    2617 1       1.11170000e+02    3.56895200e+02
   2597    2595    2617 1       1.03090000e+02    5.20322240e+02
   2597    2599    2600 1       1.20640000e+02    5.08439680e+02
   2597    2599    2608 1       1.20640000e+02    5.08439680e+02
   2597    2613    2600 1       1.16810000e+02    4.91368960e+02
   2597    2613    2614 1       1.14760000e+02    3.49364000e+02
   2597    2613    2615 1       1.22490000e+02    4.75804480e+02
   2598    2597    2599 1       1.14530000e+02    3.58485120e+02
   2598    2597    2613 1       1.14760000e+02    3.49364000e+02
   2599    2597    2613 1       1.16810000e+02    4.91368960e+02
   2599    2600    2601 1       1.20020000e+02    5.32790560e+02
   2599    2600    2613 1       1.20640000e+02    5.08439680e+02
   2599    2608    2607 1       1.20020000e+02    5.32790560e+02
   2599    2608    2609 1       1.20830000e+02    5.08272320e+02
   2600    2599    2608 1       1.20020000e+02    5.32790560e+02
   2600    2601    2602 1       1.20830000e+02    5.08272320e+02
   2600    2601    2606 1       1.20020000e+02    5.32790560e+02
   2600    2613    2614 1       1.14530000e+02    3.58485120e+02
   2600    2613    2615 1       1.24830000e+02    4.77729120e+02
   2601    2600    2613 1       1.20640000e+02    5.08439680e+02
   2601    2602    2603 1       1.10630000e+02    3.64928480e+02
   2601    2602    2604 1       1.10630000e+02    3.64928480e+02
   2601    2602    2605 1       1.10630000e+02    3.64928480e+02
   2601    2606    1746 1       1.20640000e+02    5.08439680e+02
   2601    2606    2607 1       1.20020000e+02    5.32790560e+02
   2602    2601    2606 1       1.20830000e+02    5.08272320e+02
   2603    2602    2604 1       1.07730000e+02    2.99574400e+02
   2603    2602    2605 1       1.07730000e+02    2.99574400e+02
   2604    2602    2605 1       1.07730000e+02    2.99574400e+02
   2606    1746    1747 1       1.14530000e+02    3.58485120e+02
   2606    1746    1748 1       1.16810000e+02    4.91368960e+02
   2606    2607    1748 1       1.20640000e+02    5.08439680e+02
   2606    2607    2608 1       1.20020000e+02    5.32790560e+02
   2607    1748    1746 1       1.16810000e+02    4.91368960e+02
   2607    1748    1749 1       1.14530000e+02    3.58485120e+02
   2607    2606    1746 1       1.20640000e+02    5.08439680e+02
   2608    2607    1748 1       1.20640000e+02    5.08439680e+02
   2608    2609    2610 1       1.10630000e+02    3.64928480e+02
   2608    2609    2611 1       1.10630000e+02    3.64928480e+02
   2608    2609    2612 1       1.10630000e+02    3.64928480e+02
   2609    2608    2607 1       1.20830000e+02    5.08272320e+02
   2610    2609    2611 1       1.07730000e+02    2.99574400e+02
   2610    2609    2612 1       1.07730000e+02    2.99574400e+02
   2611    2609    2612 1       1.07730000e+02    2.99574400e+02
   2613    2615    2616 1       1.12000000e+02    3.56811520e+02
   2613    2615    2617 1       1.03090000e+02    5.20322240e+02
   2614    2613    2615 1       1.13690000e+02    3.54217440e+02
   2615    2617    2618 1       1.11170000e+02    3.56895200e+02
   2615    2617    2619 1       1.11170000e+02    3.56895200e+02
   2616    2615    2617 1       1.11170000e+02    3.56895200e+02
   2618    2617    2619 1       1.07220000e+02    3.00494880e+02
   2620    2621    2622 1       1.19880000e+02    3.75723200e+02
   2623    2627    2628 1       1.10280000e+02    5.05761920e+02
   2623    2627    2632 1       1.13070000e+02    5.03000480e+02
   2623    2627    2656 1       1.13070000e+02    5.03000480e+02
   2624    2623    2625 1       1.07730000e+02    2.99574400e+02
   2624    2623    2626 1       1.07730000e+02    2.99574400e+02
   2624    2623    2627 1       1.10530000e+02    3.60326080e+02
   2625    2623    2626 1       1.07730000e+02    2.99574400e+02
   2625    2623    2627 1       1.10530000e+02    3.60326080e+02
   2626    2623    2627 1       1.10530000e+02    3.60326080e+02
   2627    2628    2629 1       1.10530000e+02    3.60326080e+02
   2627    2628    2630 1       1.10530000e+02    3.60326080e+02
   2627    2628    2631 1       1.10530000e+02    3.60326080e+02
   2627    2632    2633 1       1.10210000e+02    5.31033280e+02
   2627    2632    2653 1       1.21870000e+02    5.06012960e+02
   2627    2656    2655 1       1.10210000e+02    5.31033280e+02
   2627    2656    2657 1       1.21870000e+02    5.06012960e+02
   2628    2627    2632 1       1.13070000e+02    5.03000480e+02
   2628    2627    2656 1       1.13070000e+02    5.03000480e+02
   2629    2628    2630 1       1.07730000e+02    2.99574400e+02
   2629    2628    2631 1       1.07730000e+02    2.99574400e+02
   2630    2628    2631 1       1.07730000e+02    2.99574400e+02
   2632    2627    2656 1       1.12520000e+02    5.08021280e+02
   2632    2633    2634 1       1.18410000e+02    5.33794720e+02
   2632    2633    2655 1       1.21100000e+02    5.12958400e+02
   2632    2653    2652 1       1.20020000e+02    5.32790560e+02
   2632    2653    2654 1       1.19880000e+02    3.75723200e+02
   2633    2632    2653 1       1.20730000e+02    5.29945440e+02
   2633    2634    2635 1       1.19820000e+02    3.74300640e+02
   2633    2634    2636 1       1.20730000e+02    5.29945440e+02
   2633    2655    2656 1       1.21100000e+02    5.12958400e+02
   2633    2655    2690 1       1.21100000e+02    5.12958400e+02
   2634    2633    2655 1       1.21100000e+02    5.12958400e+02
   2634    2636    2637 1       1.20640000e+02    5.08439680e+02
   2634    2636    2652 1       1.20020000e+02    5.32790560e+02
   2635    2634    2636 1       1.19880000e+02    3.75723200e+02
   2636    2637    2638 1       1.14530000e+02    3.58485120e+02
   2636    2637    2639 1       1.16810000e+02    4.91368960e+02
   2636    2637    2647 1       1.24830000e+02    4.77729120e+02
   2636    2652    2639 1       1.20640000e+02    5.08439680e+02
   2636    2652    2653 1       1.20020000e+02    5.32790560e+02
   2637    2636    2652 1       1.20640000e+02    5.08439680e+02
   2637    2639    2640 1       1.14760000e+02    3.49364000e+02
   2637    2639    2641 1       1.22490000e+02    4.75804480e+02
   2637    2639    2652 1       1.16810000e+02    4.91368960e+02
   2637    2647    2645 1       9.60300000e+01    5.40070720e+02
   2637    2647    2648 1       1.12000000e+02    3.56811520e+02
   2637    2647    2649 1       1.03090000e+02    5.20322240e+02
   2638    2637    2639 1       1.14760000e+02    3.49364000e+02
   2638    2637    2647 1       1.13690000e+02    3.54217440e+02
   2639    2637    2647 1       1.22490000e+02    4.75804480e+02
   2639    2641    2642 1       1.12000000e+02    3.56811520e+02
   2639    2641    2643 1       9.60300000e+01    5.40070720e+02
   2639    2641    2649 1       1.03090000e+02    5.20322240e+02
   2639    2652    2653 1       1.20640000e+02    5.08439680e+02
   2640    2639    2641 1       1.13690000e+02    3.54217440e+02
   2640    2639    2652 1       1.14530000e+02    3.58485120e+02
   2641    2639    2652 1       1.24830000e+02    4.77729120e+02
   2641    2643    1779 1       1.24830000e+02    4.77729120e+02
   2641    2643    2644 1       1.13690000e+02    3.54217440e+02
   2641    2643    2645 1       1.22490000e+02    4.75804480e+02
   2641    2649    2647 1       1.03830000e+02    5.17477120e+02
   2641    2649    2650 1       1.11170000e+02    3.56895200e+02
   2641    2649    2651 1       1.11170000e+02    3.56895200e+02
   2642    2641    2649 1       1.11170000e+02    3.56895200e+02
   2643    2641    2642 1       1.12000000e+02    3.56811520e+02
   2643    2645    2646 1       1.14760000e+02    3.49364000e+02
   2645    2643    2644 1       1.14760000e+02    3.49364000e+02
   2645    2647    2648 1       1.12000000e+02    3.56811520e+02
   2647    2645    1778 1       1.24830000e+02    4.77729120e+02
   2647    2645    2643 1       1.22490000e+02    4.75804480e+02
   2647    2645    2646 1       1.13690000e+02    3.54217440e+02
   2647    2649    2650 1       1.11170000e+02    3.56895200e+02
   2647    2649    2651 1       1.11170000e+02    3.56895200e+02
   2648    2647    2649 1       1.11170000e+02    3.56895200e+02
   2649    2641    2643 1       1.03090000e+02    5.20322240e+02
   2649    2647    2645 1       1.03090000e+02    5.20322240e+02
   2650    2649    2651 1       1.07220000e+02    3.00494880e+02
   2652    2653    2654 1       1.19880000e+02    3.75723200e+02
   2655    2656    2657 1       1.20730000e+02    5.29945440e+02
   2655    2690    2689 1       1.20730000e+02    5.29945440e+02
   2655    2690    2691 1       1.19820000e+02    3.74300640e+02
   2656    2655    2690 1       1.18410000e+02    5.33794720e+02
   2656    2657    2658 1       1.19880000e+02    3.75723200e+02
   2656    2657    2659 1       1.20020000e+02    5.32790560e+02
   2657    2659    2660 1       1.20640000e+02    5.08439680e+02
   2657    2659    2689 1       1.20020000e+02    5.32790560e+02
   2658    2657    2659 1       1.19880000e+02    3.75723200e+02
   2659    2660    2661 1       1.14530000e+02    3.58485120e+02
   2659    2660    2662 1       1.16810000e+02    4.91368960e+02
   2659    2660    2684 1       1.24830000e+02    4.77729120e+02
   2659    2689    2662 1       1.20640000e+02    5.08439680e+02
   2659    2689    2690 1       1.20020000e+02    5.32790560e+02
   2660    2659    2689 1       1.20640000e+02    5.08439680e+02
   2660    2662    2663 1       1.14760000e+02    3.49364000e+02
   2660    2662    2664 1       1.22490000e+02    4.75804480e+02
   2660    2662    2689 1       1.16810000e+02    4.91368960e+02
   2660    2684    2682 1       9.60300000e+01    5.40070720e+02
   2660    2684    2685 1       1.12000000e+02    3.56811520e+02
   2660    2684    2686 1       1.03090000e+02    5.20322240e+02
   2661    2660    2662 1       1.14760000e+02    3.49364000e+02
   2661    2660    2684 1       1.13690000e+02    3.54217440e+02
   2662    2660    2684 1       1.22490000e+02    4.75804480e+02
   2662    2664    2665 1       1.12000000e+02    3.56811520e+02
   2662    2664    2666 1       9.60300000e+01    5.40070720e+02
   2662    2664    2686 1       1.03090000e+02    5.20322240e+02
   2662    2689    2690 1       1.20640000e+02    5.08439680e+02
   2663    2662    2664 1       1.13690000e+02    3.54217440e+02
   2663    2662    2689 1       1.14530000e+02    3.58485120e+02
   2664    2662    2689 1       1.24830000e+02    4.77729120e+02
   2664    2666    2667 1       1.13690000e+02    3.54217440e+02
   2664    2666    2668 1       1.24830000e+02    4.77729120e+02
   2664    2666    2682 1       1.22490000e+02    4.75804480e+02
   2664    2686    2684 1       1.03830000e+02    5.17477120e+02
   2664    2686    2687 1       1.11170000e+02    3.56895200e+02
   2664    2686    2688 1       1.11170000e+02    3.56895200e+02
   2665    2664    2666 1       1.12000000e+02    3.56811520e+02
   2665    2664    2686 1       1.11170000e+02    3.56895200e+02
   2666    2664    2686 1       1.03090000e+02    5.20322240e+02
   2666    2668    2669 1       1.20640000e+02    5.08439680e+02
   2666    2668    2677 1       1.20640000e+02    5.08439680e+02
   2666    2682    2669 1       1.16810000e+02    4.91368960e+02
   2666    2682    2683 1       1.14760000e+02    3.49364000e+02
   2666    2682    2684 1       1.22490000e+02    4.75804480e+02
   2667    2666    2668 1       1.14530000e+02    3.58485120e+02
   2667    2666    2682 1       1.14760000e+02    3.49364000e+02
   2668    2666    2682 1       1.16810000e+02    4.91368960e+02
   2668    2669    2670 1       1.20020000e+02    5.32790560e+02
   2668    2669    2682 1       1.20640000e+02    5.08439680e+02
   2668    2677    2676 1       1.20020000e+02    5.32790560e+02
   2668    2677    2678 1       1.20830000e+02    5.08272320e+02
   2669    2668    2677 1       1.20020000e+02    5.32790560e+02
   2669    2670    2671 1       1.20830000e+02    5.08272320e+02
   2669    2670    2675 1       1.20020000e+02    5.32790560e+02
   2669    2682    2683 1       1.14530000e+02    3.58485120e+02
   2669    2682    2684 1       1.24830000e+02    4.77729120e+02
   2670    2669    2682 1       1.20640000e+02    5.08439680e+02
   2670    2671    2672 1       1.10630000e+02    3.64928480e+02
   2670    2671    2673 1       1.10630000e+02    3.64928480e+02
   2670    2671    2674 1       1.10630000e+02    3.64928480e+02
   2670    2675     368 1       1.20640000e+02    5.08439680e+02
   2670    2675    2676 1       1.20020000e+02    5.32790560e+02
   2671    2670    2675 1       1.20830000e+02    5.08272320e+02
   2672    2671    2673 1       1.07730000e+02    2.99574400e+02
   2672    2671    2674 1       1.07730000e+02    2.99574400e+02
   2673    2671    2674 1       1.07730000e+02    2.99574400e+02
   2675     368     366 1       1.16810000e+02    4.91368960e+02
   2675     368     369 1       1.14530000e+02    3.58485120e+02
   2675    2676     366 1       1.20640000e+02    5.08439680e+02
   2675    2676    2677 1       1.20020000e+02    5.32790560e+02
   2676     366     367 1       1.14530000e+02    3.58485120e+02
   2676     366     368 1       1.16810000e+02    4.91368960e+02
   2676    2675     368 1       1.20640000e+02    5.08439680e+02
   2677    2676     366 1       1.20640000e+02    5.08439680e+02
   2677    2678    2679 1       1.10630000e+02    3.64928480e+02
   2677    2678    2680 1       1.10630000e+02    3.64928480e+02
   2677    2678    2681 1       1.10630000e+02    3.64928480e+02
   2678    2677    2676 1       1.20830000e+02    5.08272320e+02
   2679    2678    2680 1       1.07730000e+02    2.99574400e+02
   2679    2678    2681 1       1.07730000e+02    2.99574400e+02
   2680    2678    2681 1       1.07730000e+02    2.99574400e+02
   2682    2684    2685 1       1.12000000e+02    3.56811520e+02
   2682    2684    2686 1       1.03090000e+02    5.20322240e+02
   2683    2682    2684 1       1.13690000e+02    3.54217440e+02
   2684    2686    2687 1       1.11170000e+02    3.56895200e+02
   2684    2686    2688 1       1.11170000e+02    3.56895200e+02
   2685    2684    2686 1       1.11170000e+02    3.56895200e+02
   2687    2686    2688 1       1.07220000e+02    3.00494880e+02
   2689    2690    2691 1       1.19880000e+02    3.75723200e+02
   2692    2696    2697 1       1.10280000e+02    5.05761920e+02
   2692    2696    2701 1       1.13070000e+02    5.03000480e+02
   2692    2696    2725 1       1.13070000e+02    5.03000480e+02
   2693    2692    2694 1       1.07730000e+02    2.99574400e+02
   2693    2692    2695 1       1.07730000e+02    2.99574400e+02
   2693    2692    2696 1       1.10530000e+02    3.60326080e+02
   2694    2692    2695 1       1.07730000e+02    2.99574400e+02
   2694    2692    2696 1       1.10530000e+02    3.60326080e+02
   2695    2692    2696 1       1.10530000e+02    3.60326080e+02
   2696    2697    2698 1       1.10530000e+02    3.60326080e+02
   2696    2697    2699 1       1.10530000e+02    3.60326080e+02
   2696    2697    2700 1       1.10530000e+02    3.60326080e+02
   2696    2701    2702 1       1.10210000e+02    5.31033280e+02
   2696    2701    2722 1       1.21870000e+02    5.06012960e+02
   2696    2725    2724 1       1.10210000e+02    5.31033280e+02
   2696    2725    2726 1       1.21870000e+02    5.06012960e+02
   2697    2696    2701 1       1.13070000e+02    5.03000480e+02
   2697    2696    2725 1       1.13070000e+02    5.03000480e+02
   2698    2697    2699 1       1.07730000e+02    2.99574400e+02
   2698    2697    2700 1       1.07730000e+02    2.99574400e+02
   2699    2697    2700 1       1.07730000e+02    2.99574400e+02
   2701    2696    2725 1       1.12520000e+02    5.08021280e+02
   2701    2702    2703 1       1.18410000e+02    5.33794720e+02
   2701    2702    2724 1       1.21100000e+02    5.12958400e+02
   2701    2722    2721 1       1.20020000e+02    5.32790560e+02
   2701    2722    2723 1       1.19880000e+02    3.75723200e+02
   2702    2701    2722 1       1.20730000e+02    5.29945440e+02
   2702    2703    2704 1       1.19820000e+02    3.74300640e+02
   2702    2703    2705 1       1.20730000e+02    5.29945440e+02
   2702    2724    2725 1       1.21100000e+02    5.12958400e+02
   2702    2724    2759 1       1.21100000e+02    5.12958400e+02
   2703    2702    2724 1       1.21100000e+02    5.12958400e+02
   2703    2705    2706 1       1.20640000e+02    5.08439680e+02
   2703    2705    2721 1       1.20020000e+02    5.32790560e+02
   2704    2703    2705 1       1.19880000e+02    3.75723200e+02
   2705    2706    2707 1       1.14530000e+02    3.58485120e+02
   2705    2706    2708 1       1.16810000e+02    4.91368960e+02
   2705    2706    2716 1       1.24830000e+02    4.77729120e+02
   2705    2721    2708 1       1.20640000e+02    5.08439680e+02
   2705    2721    2722 1       1.20020000e+02    5.32790560e+02
   2706    2705    2721 1       1.20640000e+02    5.08439680e+02
   2706    2708    2709 1       1.14760000e+02    3.49364000e+02
   2706    2708    2710 1       1.22490000e+02    4.75804480e+02
   2706    2708    2721 1       1.16810000e+02    4.91368960e+02
   2706    2716    2714 1       9.60300000e+01    5.40070720e+02
   2706    2716    2717 1       1.12000000e+02    3.56811520e+02
   2706    2716    2718 1       1.03090000e+02    5.20322240e+02
   2707    2706    2708 1       1.14760000e+02    3.49364000e+02
   2707    2706    2716 1       1.13690000e+02    3.54217440e+02
   2708    2706    2716 1       1.22490000e+02    4.75804480e+02
   2708    2710    2711 1       1.12000000e+02    3.56811520e+02
   2708    2710    2712 1       9.60300000e+01    5.40070720e+02
   2708    2710    2718 1       1.03090000e+02    5.20322240e+02
   2708    2721    2722 1       1.20640000e+02    5.08439680e+02
   2709    2708    2710 1       1.13690000e+02    3.54217440e+02
   2709    2708    2721 1       1.14530000e+02    3.58485120e+02
   2710    2708    2721 1       1.24830000e+02    4.77729120e+02
   2710    2712     675 1       1.24830000e+02    4.77729120e+02
   2710    2712    2713 1       1.13690000e+02    3.54217440e+02
   2710    2712    2714 1       1.22490000e+02    4.75804480e+02
   2710    2718    2716 1       1.03830000e+02    5.17477120e+02
   2710    2718    2719 1       1.11170000e+02    3.56895200e+02
   2710    2718    2720 1       1.11170000e+02    3.56895200e+02
   2711    2710    2718 1       1.11170000e+02    3.56895200e+02
   2712    2710    2711 1       1.12000000e+02    3.56811520e+02
   2712    2714    2715 1       1.14760000e+02    3.49364000e+02
   2714    2712    2713 1       1.14760000e+02    3.49364000e+02
   2714    2716    2717 1       1.12000000e+02    3.56811520e+02
   2716    2714     674 1       1.24830000e+02    4.77729120e+02
   2716    2714    2712 1       1.22490000e+02    4.75804480e+02
   2716    2714    2715 1       1.13690000e+02    3.54217440e+02
   2716    2718    2719 1       1.11170000e+02    3.56895200e+02
   2716    2718    2720 1       1.11170000e+02    3.56895200e+02
   2717    2716    2718 1       1.11170000e+02    3.56895200e+02
   2718    2710    2712 1       1.03090000e+02    5.20322240e+02
   2718    2716    2714 1       1.03090000e+02    5.20322240e+02
   2719    2718    2720 1       1.07220000e+02    3.00494880e+02
   2721    2722    2723 1       1.19880000e+02    3.75723200e+02
   2724    2725    2726 1       1.20730000e+02    5.29945440e+02
   2724    2759    2758 1       1.20730000e+02    5.29945440e+02
   2724    2759    2760 1       1.19820000e+02    3.74300640e+02
   2725    2724    2759 1       1.18410000e+02    5.33794720e+02
   2725    2726    2727 1       1.19880000e+02    3.75723200e+02
   2725    2726    2728 1       1.20020000e+02    5.32790560e+02
   2726    2728    2729 1       1.20640000e+02    5.08439680e+02
   2726    2728    2758 1       1.20020000e+02    5.32790560e+02
   2727    2726    2728 1       1.19880000e+02    3.75723200e+02
   2728    2729    2730 1       1.14530000e+02    3.58485120e+02
   2728    2729    2731 1       1.16810000e+02    4.91368960e+02
   2728    2729    2753 1       1.24830000e+02    4.77729120e+02
   2728    2758    2731 1       1.20640000e+02    5.08439680e+02
   2728    2758    2759 1       1.20020000e+02    5.32790560e+02
   2729    2728    2758 1       1.20640000e+02    5.08439680e+02
   2729    2731    2732 1       1.14760000e+02    3.49364000e+02
   2729    2731    2733 1       1.22490000e+02    4.75804480e+02
   2729    2731    2758 1       1.16810000e+02    4.91368960e+02
   2729    2753    2751 1       9.60300000e+01    5.40070720e+02
   2729    2753    2754 1       1.12000000e+02    3.56811520e+02
   2729    2753    2755 1       1.03090000e+02    5.20322240e+02
   2730    2729    2731 1       1.14760000e+02    3.49364000e+02
   2730    2729    2753 1       1.13690000e+02    3.54217440e+02
   2731    2729    2753 1       1.22490000e+02    4.75804480e+02
   2731    2733    2734 1       1.12000000e+02    3.56811520e+02
   2731    2733    2735 1       9.60300000e+01    5.40070720e+02
   2731    2733    2755 1       1.03090000e+02    5.20322240e+02
   2731    2758    2759 1       1.20640000e+02    5.08439680e+02
   2732    2731    2733 1       1.13690000e+02    3.54217440e+02
   2732    2731    2758 1       1.14530000e+02    3.58485120e+02
   2733    2731    2758 1       1.24830000e+02    4.77729120e+02
   2733    2735    2736 1       1.13690000e+02    3.54217440e+02
   2733    2735    2737 1       1.24830000e+02    4.77729120e+02
   2733    2735    2751 1       1.22490000e+02    4.75804480e+02
   2733    2755    2753 1       1.03830000e+02    5.17477120e+02
   2733    2755    2756 1       1.11170000e+02    3.56895200e+02
   2733    2755    2757 1       1.11170000e+02    3.56895200e+02
   2734    2733    2735 1       1.12000000e+02    3.56811520e+02
   2734    2733    2755 1       1.11170000e+02    3.56895200e+02
   2735    2733    2755 1       1.03090000e+02    5.20322240e+02
   2735    2737    2738 1       1.20640000e+02    5.08439680e+02
   2735    2737    2746 1       1.20640000e+02    5.08439680e+02
   2735    2751    2738 1       1.16810000e+02    4.91368960e+02
   2735    2751    2752 1       1.14760000e+02    3.49364000e+02
   2735    2751    2753 1       1.22490000e+02    4.75804480e+02
   2736    2735    2737 1       1.14530000e+02    3.58485120e+02
   2736    2735    2751 1       1.14760000e+02    3.49364000e+02
   2737    2735    2751 1       1.16810000e+02    4.91368960e+02
   2737    2738    2739 1       1.20020000e+02    5.32790560e+02
   2737    2738    2751 1       1.20640000e+02    5.08439680e+02
   2737    2746    2745 1       1.20020000e+02    5.32790560e+02
   2737    2746    2747 1       1.20830000e+02    5.08272320e+02
   2738    2737    2746 1       1.20020000e+02    5.32790560e+02
   2738    2739    2740 1       1.20830000e+02    5.08272320e+02
   2738    2739    2744 1       1.20020000e+02    5.32790560e+02
   2738    2751    2752 1       1.14530000e+02    3.58485120e+02
   2738    2751    2753 1       1.24830000e+02    4.77729120e+02
   2739    2738    2751 1       1.20640000e+02    5.08439680e+02
   2739    2740    2741 1       1.10630000e+02    3.64928480e+02
   2739    2740    2742 1       1.10630000e+02    3.64928480e+02
   2739    2740    2743 1       1.10630000e+02    3.64928480e+02
   2739    2744     435 1       1.20640000e+02    5.08439680e+02
   2739    2744    2745 1       1.20020000e+02    5.32790560e+02
   2740    2739    2744 1       1.20830000e+02    5.08272320e+02
   2741    2740    2742 1       1.07730000e+02    2.99574400e+02
   2741    2740    2743 1       1.07730000e+02    2.99574400e+02
   2742    2740    2743 1       1.07730000e+02    2.99574400e+02
   2744     435     436 1       1.14530000e+02    3.58485120e+02
   2744     435     437 1       1.16810000e+02    4.91368960e+02
   2744    2745     437 1       1.20640000e+02    5.08439680e+02
   2744    2745    2746 1       1.20020000e+02    5.32790560e+02
   2745     437     435 1       1.16810000e+02    4.91368960e+02
   2745     437     438 1       1.14530000e+02    3.58485120e+02
   2745    2744     435 1       1.20640000e+02    5.08439680e+02
   2746    2745     437 1       1.20640000e+02    5.08439680e+02
   2746    2747    2748 1       1.10630000e+02    3.64928480e+02
   2746    2747    2749 1       1.10630000e+02    3.64928480e+02
   2746    2747    2750 1       1.10630000e+02    3.64928480e+02
   2747    2746    2745 1       1.20830000e+02    5.08272320e+02
   2748    2747    2749 1       1.07730000e+02    2.99574400e+02
   2748    2747    2750 1       1.07730000e+02    2.99574400e+02
   2749    2747    2750 1       1.07730000e+02    2.99574400e+02
   2751    2753    2754 1       1.12000000e+02    3.56811520e+02
   2751    2753    2755 1       1.03090000e+02    5.20322240e+02
   2752    2751    2753 1       1.13690000e+02    3.54217440e+02
   2753    2755    2756 1       1.11170000e+02    3.56895200e+02
   2753    2755    2757 1       1.11170000e+02    3.56895200e+02
   2754    2753    2755 1       1.11170000e+02    3.56895200e+02
   2756    2755    2757 1       1.07220000e+02    3.00494880e+02
   2758    2759    2760 1       1.19880000e+02    3.75723200e+02
   2761    2765    2766 1       1.10280000e+02    5.05761920e+02
   2761    2765    2770 1       1.13070000e+02    5.03000480e+02
   2761    2765    2794 1       1.13070000e+02    5.03000480e+02
   2762    2761    2763 1       1.07730000e+02    2.99574400e+02
   2762    2761    2764 1       1.07730000e+02    2.99574400e+02
   2762    2761    2765 1       1.10530000e+02    3.60326080e+02
   2763    2761    2764 1       1.07730000e+02    2.99574400e+02
   2763    2761    2765 1       1.10530000e+02    3.60326080e+02
   2764    2761    2765 1       1.10530000e+02    3.60326080e+02
   2765    2766    2767 1       1.10530000e+02    3.60326080e+02
   2765    2766    2768 1       1.10530000e+02    3.60326080e+02
   2765    2766    2769 1       1.10530000e+02    3.60326080e+02
   2765    2770    2771 1       1.10210000e+02    5.31033280e+02
   2765    2770    2791 1       1.21870000e+02    5.06012960e+02
   2765    2794    2793 1       1.10210000e+02    5.31033280e+02
   2765    2794    2795 1       1.21870000e+02    5.06012960e+02
   2766    2765    2770 1       1.13070000e+02    5.03000480e+02
   2766    2765    2794 1       1.13070000e+02    5.03000480e+02
   2767    2766    2768 1       1.07730000e+02    2.99574400e+02
   2767    2766    2769 1       1.07730000e+02    2.99574400e+02
   2768    2766    2769 1       1.07730000e+02    2.99574400e+02
   2770    2765    2794 1       1.12520000e+02    5.08021280e+02
   2770    2771    2772 1       1.18410000e+02    5.33794720e+02
   2770    2771    2793 1       1.21100000e+02    5.12958400e+02
   2770    2791    2790 1       1.20020000e+02    5.32790560e+02
   2770    2791    2792 1       1.19880000e+02    3.75723200e+02
   2771    2770    2791 1       1.20730000e+02    5.29945440e+02
   2771    2772    2773 1       1.19820000e+02    3.74300640e+02
   2771    2772    2774 1       1.20730000e+02    5.29945440e+02
   2771    2793    2794 1       1.21100000e+02    5.12958400e+02
   2771    2793    2828 1       1.21100000e+02    5.12958400e+02
   2772    2771    2793 1       1.21100000e+02    5.12958400e+02
   2772    2774    2775 1       1.20640000e+02    5.08439680e+02
   2772    2774    2790 1       1.20020000e+02    5.32790560e+02
   2773    2772    2774 1       1.19880000e+02    3.75723200e+02
   2774    2775    2776 1       1.14530000e+02    3.58485120e+02
   2774    2775    2777 1       1.16810000e+02    4.91368960e+02
   2774    2775    2785 1       1.24830000e+02    4.77729120e+02
   2774    2790    2777 1       1.20640000e+02    5.08439680e+02
   2774    2790    2791 1       1.20020000e+02    5.32790560e+02
   2775    2774    2790 1       1.20640000e+02    5.08439680e+02
   2775    2777    2778 1       1.14760000e+02    3.49364000e+02
   2775    2777    2779 1       1.22490000e+02    4.75804480e+02
   2775    2777    2790 1       1.16810000e+02    4.91368960e+02
   2775    2785    2783 1       9.60300000e+01    5.40070720e+02
   2775    2785    2786 1       1.12000000e+02    3.56811520e+02
   2775    2785    2787 1       1.03090000e+02    5.20322240e+02
   2776    2775    2777 1       1.14760000e+02    3.49364000e+02
   2776    2775    2785 1       1.13690000e+02    3.54217440e+02
   2777    2775    2785 1       1.22490000e+02    4.75804480e+02
   2777    2779    2780 1       1.12000000e+02    3.56811520e+02
   2777    2779    2781 1       9.60300000e+01    5.40070720e+02
   2777    2779    2787 1       1.03090000e+02    5.20322240e+02
   2777    2790    2791 1       1.20640000e+02    5.08439680e+02
   2778    2777    2779 1       1.13690000e+02    3.54217440e+02
   2778    2777    2790 1       1.14530000e+02    3.58485120e+02
   2779    2777    2790 1       1.24830000e+02    4.77729120e+02
   2779    2781    2782 1       1.13690000e+02    3.54217440e+02
   2779    2781    2783 1       1.22490000e+02    4.75804480e+02
   2779    2781    4193 1       1.24830000e+02    4.77729120e+02
   2779    2787    2785 1       1.03830000e+02    5.17477120e+02
   2779    2787    2788 1       1.11170000e+02    3.56895200e+02
   2779    2787    2789 1       1.11170000e+02    3.56895200e+02
   2780    2779    2787 1       1.11170000e+02    3.56895200e+02
   2781    2779    2780 1       1.12000000e+02    3.56811520e+02
   2781    2783    2784 1       1.14760000e+02    3.49364000e+02
   2783    2781    2782 1       1.14760000e+02    3.49364000e+02
   2783    2785    2786 1       1.12000000e+02    3.56811520e+02
   2785    2783    2781 1       1.22490000e+02    4.75804480e+02
   2785    2783    2784 1       1.13690000e+02    3.54217440e+02
   2785    2783    4194 1       1.24830000e+02    4.77729120e+02
   2785    2787    2788 1       1.11170000e+02    3.56895200e+02
   2785    2787    2789 1       1.11170000e+02    3.56895200e+02
   2786    2785    2787 1       1.11170000e+02    3.56895200e+02
   2787    2779    2781 1       1.03090000e+02    5.20322240e+02
   2787    2785    2783 1       1.03090000e+02    5.20322240e+02
   2788    2787    2789 1       1.07220000e+02    3.00494880e+02
   2790    2791    2792 1       1.19880000e+02    3.75723200e+02
   2793    2794    2795 1       1.20730000e+02    5.29945440e+02
   2793    2828    2827 1       1.20730000e+02    5.29945440e+02
   2793    2828    2829 1       1.19820000e+02    3.74300640e+02
   2794    2793    2828 1       1.18410000e+02    5.33794720e+02
   2794    2795    2796 1       1.19880000e+02    3.75723200e+02
   2794    2795    2797 1       1.20020000e+02    5.32790560e+02
   2795    2797    2798 1       1.20640000e+02    5.08439680e+02
   2795    2797    2827 1       1.20020000e+02    5.32790560e+02
   2796    2795    2797 1       1.19880000e+02    3.75723200e+02
   2797    2798    2799 1       1.14530000e+02    3.58485120e+02
   2797    2798    2800 1       1.16810000e+02    4.91368960e+02
   2797    2798    2822 1       1.24830000e+02    4.77729120e+02
   2797    2827    2800 1       1.20640000e+02    5.08439680e+02
   2797    2827    2828 1       1.20020000e+02    5.32790560e+02
   2798    2797    2827 1       1.20640000e+02    5.08439680e+02
   2798    2800    2801 1       1.14760000e+02    3.49364000e+02
   2798    2800    2802 1       1.22490000e+02    4.75804480e+02
   2798    2800    2827 1       1.16810000e+02    4.91368960e+02
   2798    2822    2820 1       9.60300000e+01    5.40070720e+02
   2798    2822    2823 1       1.12000000e+02    3.56811520e+02
   2798    2822    2824 1       1.03090000e+02    5.20322240e+02
   2799    2798    2800 1       1.14760000e+02    3.49364000e+02
   2799    2798    2822 1       1.13690000e+02    3.54217440e+02
   2800    2798    2822 1       1.22490000e+02    4.75804480e+02
   2800    2802    2803 1       1.12000000e+02    3.56811520e+02
   2800    2802    2804 1       9.60300000e+01    5.40070720e+02
   2800    2802    2824 1       1.03090000e+02    5.20322240e+02
   2800    2827    2828 1       1.20640000e+02    5.08439680e+02
   2801    2800    2802 1       1.13690000e+02    3.54217440e+02
   2801    2800    2827 1       1.14530000e+02    3.58485120e+02
   2802    2800    2827 1       1.24830000e+02    4.77729120e+02
   2802    2804    2805 1       1.13690000e+02    3.54217440e+02
   2802    2804    2806 1       1.24830000e+02    4.77729120e+02
   2802    2804    2820 1       1.22490000e+02    4.75804480e+02
   2802    2824    2822 1       1.03830000e+02    5.17477120e+02
   2802    2824    2825 1       1.11170000e+02    3.56895200e+02
   2802    2824    2826 1       1.11170000e+02    3.56895200e+02
   2803    2802    2804 1       1.12000000e+02    3.56811520e+02
   2803    2802    2824 1       1.11170000e+02    3.56895200e+02
   2804    2802    2824 1       1.03090000e+02    5.20322240e+02
   2804    2806    2807 1       1.20640000e+02    5.08439680e+02
   2804    2806    2815 1       1.20640000e+02    5.08439680e+02
   2804    2820    2807 1       1.16810000e+02    4.91368960e+02
   2804    2820    2821 1       1.14760000e+02    3.49364000e+02
   2804    2820    2822 1       1.22490000e+02    4.75804480e+02
   2805    2804    2806 1       1.14530000e+02    3.58485120e+02
   2805    2804    2820 1       1.14760000e+02    3.49364000e+02
   2806    2804    2820 1       1.16810000e+02    4.91368960e+02
   2806    2807    2808 1       1.20020000e+02    5.32790560e+02
   2806    2807    2820 1       1.20640000e+02    5.08439680e+02
   2806    2815    2814 1       1.20020000e+02    5.32790560e+02
   2806    2815    2816 1       1.20830000e+02    5.08272320e+02
   2807    2806    2815 1       1.20020000e+02    5.32790560e+02
   2807    2808    2809 1       1.20830000e+02    5.08272320e+02
   2807    2808    2813 1       1.20020000e+02    5.32790560e+02
   2807    2820    2821 1       1.14530000e+02    3.58485120e+02
   2807    2820    2822 1       1.24830000e+02    4.77729120e+02
   2808    2807    2820 1       1.20640000e+02    5.08439680e+02
   2808    2809    2810 1       1.10630000e+02    3.64928480e+02
   2808    2809    2811 1       1.10630000e+02    3.64928480e+02
   2808    2809    2812 1       1.10630000e+02    3.64928480e+02
   2808    2813    2814 1       1.20020000e+02    5.32790560e+02
   2809    2808    2813 1       1.20830000e+02    5.08272320e+02
   2810    2809    2811 1       1.07730000e+02    2.99574400e+02
   2810    2809    2812 1       1.07730000e+02    2.99574400e+02
   2811    2809    2812 1       1.07730000e+02    2.99574400e+02
   2813    2814    2815 1       1.20020000e+02    5.32790560e+02
   2814    2815    2816 1       1.20830000e+02    5.08272320e+02
   2815    2816    2817 1       1.10630000e+02    3.64928480e+02
   2815    2816    2818 1       1.10630000e+02    3.64928480e+02
   2815    2816    2819 1       1.10630000e+02    3.64928480e+02
   2817    2816    2818 1       1.07730000e+02    2.99574400e+02
   2817    2816    2819 1       1.07730000e+02    2.99574400e+02
   2818    2816    2819 1       1.07730000e+02    2.99574400e+02
   2820    2822    2823 1       1.12000000e+02    3.56811520e+02
   2820    2822    2824 1       1.03090000e+02    5.20322240e+02
   2821    2820    2822 1       1.13690000e+02    3.54217440e+02
   2822    2824    2825 1       1.11170000e+02    3.56895200e+02
   2822    2824    2826 1       1.11170000e+02    3.56895200e+02
   2823    2822    2824 1       1.11170000e+02    3.56895200e+02
   2825    2824    2826 1       1.07220000e+02    3.00494880e+02
   2827    2828    2829 1       1.19880000e+02    3.75723200e+02
   2830    2834    2835 1       1.10280000e+02    5.05761920e+02
   2830    2834    2839 1       1.13070000e+02    5.03000480e+02
   2830    2834    2863 1       1.13070000e+02    5.03000480e+02
   2831    2830    2832 1       1.07730000e+02    2.99574400e+02
   2831    2830    2833 1       1.07730000e+02    2.99574400e+02
   2831    2830    2834 1       1.10530000e+02    3.60326080e+02
   2832    2830    2833 1       1.07730000e+02    2.99574400e+02
   2832    2830    2834 1       1.10530000e+02    3.60326080e+02
   2833    2830    2834 1       1.10530000e+02    3.60326080e+02
   2834    2835    2836 1       1.10530000e+02    3.60326080e+02
   2834    2835    2837 1       1.10530000e+02    3.60326080e+02
   2834    2835    2838 1       1.10530000e+02    3.60326080e+02
   2834    2839    2840 1       1.10210000e+02    5.31033280e+02
   2834    2839    2860 1       1.21870000e+02    5.06012960e+02
   2834    2863    2862 1       1.10210000e+02    5.31033280e+02
   2834    2863    2864 1       1.21870000e+02    5.06012960e+02
   2835    2834    2839 1       1.13070000e+02    5.03000480e+02
   2835    2834    2863 1       1.13070000e+02    5.03000480e+02
   2836    2835    2837 1       1.07730000e+02    2.99574400e+02
   2836    2835    2838 1       1.07730000e+02    2.99574400e+02
   2837    2835    2838 1       1.07730000e+02    2.99574400e+02
   2839    2834    2863 1       1.12520000e+02    5.08021280e+02
   2839    2840    2841 1       1.18410000e+02    5.33794720e+02
   2839    2840    2862 1       1.21100000e+02    5.12958400e+02
   2839    2860    2859 1       1.20020000e+02    5.32790560e+02
   2839    2860    2861 1       1.19880000e+02    3.75723200e+02
   2840    2839    2860 1       1.20730000e+02    5.29945440e+02
   2840    2841    2842 1       1.19820000e+02    3.74300640e+02
   2840    2841    2843 1       1.20730000e+02    5.29945440e+02
   2840    2862    2863 1       1.21100000e+02    5.12958400e+02
   2840    2862    2897 1       1.21100000e+02    5.12958400e+02
   2841    2840    2862 1       1.21100000e+02    5.12958400e+02
   2841    2843    2844 1       1.20640000e+02    5.08439680e+02
   2841    2843    2859 1       1.20020000e+02    5.32790560e+02
   2842    2841    2843 1       1.19880000e+02    3.75723200e+02
   2843    2844    2845 1       1.14530000e+02    3.58485120e+02
   2843    2844    2846 1       1.16810000e+02    4.91368960e+02
   2843    2844    2854 1       1.24830000e+02    4.77729120e+02
   2843    2859    2846 1       1.20640000e+02    5.08439680e+02
   2843    2859    2860 1       1.20020000e+02    5.32790560e+02
   2844    2843    2859 1       1.20640000e+02    5.08439680e+02
   2844    2846    2847 1       1.14760000e+02    3.49364000e+02
   2844    2846    2848 1       1.22490000e+02    4.75804480e+02
   2844    2846    2859 1       1.16810000e+02    4.91368960e+02
   2844    2854    2852 1       9.60300000e+01    5.40070720e+02
   2844    2854    2855 1       1.12000000e+02    3.56811520e+02
   2844    2854    2856 1       1.03090000e+02    5.20322240e+02
   2845    2844    2846 1       1.14760000e+02    3.49364000e+02
   2845    2844    2854 1       1.13690000e+02    3.54217440e+02
   2846    2844    2854 1       1.22490000e+02    4.75804480e+02
   2846    2848    2849 1       1.12000000e+02    3.56811520e+02
   2846    2848    2850 1       9.60300000e+01    5.40070720e+02
   2846    2848    2856 1       1.03090000e+02    5.20322240e+02
   2846    2859    2860 1       1.20640000e+02    5.08439680e+02
   2847    2846    2848 1       1.13690000e+02    3.54217440e+02
   2847    2846    2859 1       1.14530000e+02    3.58485120e+02
   2848    2846    2859 1       1.24830000e+02    4.77729120e+02
   2848    2850     192 1       1.24830000e+02    4.77729120e+02
   2848    2850    2851 1       1.13690000e+02    3.54217440e+02
   2848    2850    2852 1       1.22490000e+02    4.75804480e+02
   2848    2856    2854 1       1.03830000e+02    5.17477120e+02
   2848    2856    2857 1       1.11170000e+02    3.56895200e+02
   2848    2856    2858 1       1.11170000e+02    3.56895200e+02
   2849    2848    2856 1       1.11170000e+02    3.56895200e+02
   2850    2848    2849 1       1.12000000e+02    3.56811520e+02
   2850    2852    2853 1       1.14760000e+02    3.49364000e+02
   2852    2850    2851 1       1.14760000e+02    3.49364000e+02
   2852    2854    2855 1       1.12000000e+02    3.56811520e+02
   2854    2852     191 1       1.24830000e+02    4.77729120e+02
   2854    2852    2850 1       1.22490000e+02    4.75804480e+02
   2854    2852    2853 1       1.13690000e+02    3.54217440e+02
   2854    2856    2857 1       1.11170000e+02    3.56895200e+02
   2854    2856    2858 1       1.11170000e+02    3.56895200e+02
   2855    2854    2856 1       1.11170000e+02    3.56895200e+02
   2856    2848    2850 1       1.03090000e+02    5.20322240e+02
   2856    2854    2852 1       1.03090000e+02    5.20322240e+02
   2857    2856    2858 1       1.07220000e+02    3.00494880e+02
   2859    2860    2861 1       1.19880000e+02    3.75723200e+02
   2862    2863    2864 1       1.20730000e+02    5.29945440e+02
   2862    2897    2896 1       1.20730000e+02    5.29945440e+02
   2862    2897    2898 1       1.19820000e+02    3.74300640e+02
   2863    2862    2897 1       1.18410000e+02    5.33794720e+02
   2863    2864    2865 1       1.19880000e+02    3.75723200e+02
   2863    2864    2866 1       1.20020000e+02    5.32790560e+02
   2864    2866    2867 1       1.20640000e+02    5.08439680e+02
   2864    2866    2896 1       1.20020000e+02    5.32790560e+02
   2865    2864    2866 1       1.19880000e+02    3.75723200e+02
   2866    2867    2868 1       1.14530000e+02    3.58485120e+02
   2866    2867    2869 1       1.16810000e+02    4.91368960e+02
   2866    2867    2891 1       1.24830000e+02    4.77729120e+02
   2866    2896    2869 1       1.20640000e+02    5.08439680e+02
   2866    2896    2897 1       1.20020000e+02    5.32790560e+02
   2867    2866    2896 1       1.20640000e+02    5.08439680e+02
   2867    2869    2870 1       1.14760000e+02    3.49364000e+02
   2867    2869    2871 1       1.22490000e+02    4.75804480e+02
   2867    2869    2896 1       1.16810000e+02    4.91368960e+02
   2867    2891    2889 1       9.60300000e+01    5.40070720e+02
   2867    2891    2892 1       1.12000000e+02    3.56811520e+02
   2867    2891    2893 1       1.03090000e+02    5.20322240e+02
   2868    2867    2869 1       1.14760000e+02    3.49364000e+02
   2868    2867    2891 1       1.13690000e+02    3.54217440e+02
   2869    2867    2891 1       1.22490000e+02    4.75804480e+02
   2869    2871    2872 1       1.12000000e+02    3.56811520e+02
   2869    2871    2873 1       9.60300000e+01    5.40070720e+02
   2869    2871    2893 1       1.03090000e+02    5.20322240e+02
   2869    2896    2897 1       1.20640000e+02    5.08439680e+02
   2870    2869    2871 1       1.13690000e+02    3.54217440e+02
   2870    2869    2896 1       1.14530000e+02    3.58485120e+02
   2871    2869    2896 1       1.24830000e+02    4.77729120e+02
   2871    2873    2874 1       1.13690000e+02    3.54217440e+02
   2871    2873    2875 1       1.24830000e+02    4.77729120e+02
   2871    2873    2889 1       1.22490000e+02    4.75804480e+02
   2871    2893    2891 1       1.03830000e+02    5.17477120e+02
   2871    2893    2894 1       1.11170000e+02    3.56895200e+02
   2871    2893    2895 1       1.11170000e+02    3.56895200e+02
   2872    2871    2873 1       1.12000000e+02    3.56811520e+02
   2872    2871    2893 1       1.11170000e+02    3.56895200e+02
   2873    2871    2893 1       1.03090000e+02    5.20322240e+02
   2873    2875    2876 1       1.20640000e+02    5.08439680e+02
   2873    2875    2884 1       1.20640000e+02    5.08439680e+02
   2873    2889    2876 1       1.16810000e+02    4.91368960e+02
   2873    2889    2890 1       1.14760000e+02    3.49364000e+02
   2873    2889    2891 1       1.22490000e+02    4.75804480e+02
   2874    2873    2875 1       1.14530000e+02    3.58485120e+02
   2874    2873    2889 1       1.14760000e+02    3.49364000e+02
   2875    2873    2889 1       1.16810000e+02    4.91368960e+02
   2875    2876    2877 1       1.20020000e+02    5.32790560e+02
   2875    2876    2889 1       1.20640000e+02    5.08439680e+02
   2875    2884    2883 1       1.20020000e+02    5.32790560e+02
   2875    2884    2885 1       1.20830000e+02    5.08272320e+02
   2876    2875    2884 1       1.20020000e+02    5.32790560e+02
   2876    2877    2878 1       1.20830000e+02    5.08272320e+02
   2876    2877    2882 1       1.20020000e+02    5.32790560e+02
   2876    2889    2890 1       1.14530000e+02    3.58485120e+02
   2876    2889    2891 1       1.24830000e+02    4.77729120e+02
   2877    2876    2889 1       1.20640000e+02    5.08439680e+02
   2877    2878    2879 1       1.10630000e+02    3.64928480e+02
   2877    2878    2880 1       1.10630000e+02    3.64928480e+02
   2877    2878    2881 1       1.10630000e+02    3.64928480e+02
   2877    2882    1058 1       1.20640000e+02    5.08439680e+02
   2877    2882    2883 1       1.20020000e+02    5.32790560e+02
   2878    2877    2882 1       1.20830000e+02    5.08272320e+02
   2879    2878    2880 1       1.07730000e+02    2.99574400e+02
   2879    2878    2881 1       1.07730000e+02    2.99574400e+02
   2880    2878    2881 1       1.07730000e+02    2.99574400e+02
   2882    1058    1056 1       1.16810000e+02    4.91368960e+02
   2882    1058    1059 1       1.14530000e+02    3.58485120e+02
   2882    2883    1056 1       1.20640000e+02    5.08439680e+02
   2882    2883    2884 1       1.20020000e+02    5.32790560e+02
   2883    1056    1057 1       1.14530000e+02    3.58485120e+02
   2883    1056    1058 1       1.16810000e+02    4.91368960e+02
   2883    2882    1058 1       1.20640000e+02    5.08439680e+02
   2884    2883    1056 1       1.20640000e+02    5.08439680e+02
   2884    2885    2886 1       1.10630000e+02    3.64928480e+02
   2884    2885    2887 1       1.10630000e+02    3.64928480e+02
   2884    2885    2888 1       1.10630000e+02    3.64928480e+02
   2885    2884    2883 1       1.20830000e+02    5.08272320e+02
   2886    2885    2887 1       1.07730000e+02    2.99574400e+02
   2886    2885    2888 1       1.07730000e+02    2.99574400e+02
   2887    2885    2888 1       1.07730000e+02    2.99574400e+02
   2889    2891    2892 1       1.12000000e+02    3.56811520e+02
   2889    2891    2893 1       1.03090000e+02    5.20322240e+02
   2890    2889    2891 1       1.13690000e+02    3.54217440e+02
   2891    2893    2894 1       1.11170000e+02    3.56895200e+02
   2891    2893    2895 1       1.11170000e+02    3.56895200e+02
   2892    2891    2893 1       1.11170000e+02    3.56895200e+02
   2894    2893    2895 1       1.07220000e+02    3.00494880e+02
   2896    2897    2898 1       1.19880000e+02    3.75723200e+02
   2899    2903    2904 1       1.10280000e+02    5.05761920e+02
   2899    2903    2908 1       1.13070000e+02    5.03000480e+02
   2899    2903    2932 1       1.13070000e+02    5.03000480e+02
   2900    2899    2901 1       1.07730000e+02    2.99574400e+02
   2900    2899    2902 1       1.07730000e+02    2.99574400e+02
   2900    2899    2903 1       1.10530000e+02    3.60326080e+02
   2901    2899    2902 1       1.07730000e+02    2.99574400e+02
   2901    2899    2903 1       1.10530000e+02    3.60326080e+02
   2902    2899    2903 1       1.10530000e+02    3.60326080e+02
   2903    2904    2905 1       1.10530000e+02    3.60326080e+02
   2903    2904    2906 1       1.10530000e+02    3.60326080e+02
   2903    2904    2907 1       1.10530000e+02    3.60326080e+02
   2903    2908    2909 1       1.10210000e+02    5.31033280e+02
   2903    2908    2929 1       1.21870000e+02    5.06012960e+02
   2903    2932    2931 1       1.10210000e+02    5.31033280e+02
   2903    2932    2933 1       1.21870000e+02    5.06012960e+02
   2904    2903    2908 1       1.13070000e+02    5.03000480e+02
   2904    2903    2932 1       1.13070000e+02    5.03000480e+02
   2905    2904    2906 1       1.07730000e+02    2.99574400e+02
   2905    2904    2907 1       1.07730000e+02    2.99574400e+02
   2906    2904    2907 1       1.07730000e+02    2.99574400e+02
   2908    2903    2932 1       1.12520000e+02    5.08021280e+02
   2908    2909    2910 1       1.18410000e+02    5.33794720e+02
   2908    2909    2931 1       1.21100000e+02    5.12958400e+02
   2908    2929    2928 1       1.20020000e+02    5.32790560e+02
   2908    2929    2930 1       1.19880000e+02    3.75723200e+02
   2909    2908    2929 1       1.20730000e+02    5.29945440e+02
   2909    2910    2911 1       1.19820000e+02    3.74300640e+02
   2909    2910    2912 1       1.20730000e+02    5.29945440e+02
   2909    2931    2932 1       1.21100000e+02    5.12958400e+02
   2909    2931    2966 1       1.21100000e+02    5.12958400e+02
   2910    2909    2931 1       1.21100000e+02    5.12958400e+02
   2910    2912    2913 1       1.20640000e+02    5.08439680e+02
   2910    2912    2928 1       1.20020000e+02    5.32790560e+02
   2911    2910    2912 1       1.19880000e+02    3.75723200e+02
   2912    2913    2914 1       1.14530000e+02    3.58485120e+02
   2912    2913    2915 1       1.16810000e+02    4.91368960e+02
   2912    2913    2923 1       1.24830000e+02    4.77729120e+02
   2912    2928    2915 1       1.20640000e+02    5.08439680e+02
   2912    2928    2929 1       1.20020000e+02    5.32790560e+02
   2913    2912    2928 1       1.20640000e+02    5.08439680e+02
   2913    2915    2916 1       1.14760000e+02    3.49364000e+02
   2913    2915    2917 1       1.22490000e+02    4.75804480e+02
   2913    2915    2928 1       1.16810000e+02    4.91368960e+02
   2913    2923    2921 1       9.60300000e+01    5.40070720e+02
   2913    2923    2924 1       1.12000000e+02    3.56811520e+02
   2913    2923    2925 1       1.03090000e+02    5.20322240e+02
   2914    2913    2915 1       1.14760000e+02    3.49364000e+02
   2914    2913    2923 1       1.13690000e+02    3.54217440e+02
   2915    2913    2923 1       1.22490000e+02    4.75804480e+02
   2915    2917    2918 1       1.12000000e+02    3.56811520e+02
   2915    2917    2919 1       9.60300000e+01    5.40070720e+02
   2915    2917    2925 1       1.03090000e+02    5.20322240e+02
   2915    2928    2929 1       1.20640000e+02    5.08439680e+02
   2916    2915    2917 1       1.13690000e+02    3.54217440e+02
   2916    2915    2928 1       1.14530000e+02    3.58485120e+02
   2917    2915    2928 1       1.24830000e+02    4.77729120e+02
   2917    2919    2920 1       1.13690000e+02    3.54217440e+02
   2917    2919    2921 1       1.22490000e+02    4.75804480e+02
   2917    2919    3228 1       1.24830000e+02    4.77729120e+02
   2917    2925    2923 1       1.03830000e+02    5.17477120e+02
   2917    2925    2926 1       1.11170000e+02    3.56895200e+02
   2917    2925    2927 1       1.11170000e+02    3.56895200e+02
   2918    2917    2925 1       1.11170000e+02    3.56895200e+02
   2919    2917    2918 1       1.12000000e+02    3.56811520e+02
   2919    2921    2922 1       1.14760000e+02    3.49364000e+02
   2921    2919    2920 1       1.14760000e+02    3.49364000e+02
   2921    2923    2924 1       1.12000000e+02    3.56811520e+02
   2923    2921    2919 1       1.22490000e+02    4.75804480e+02
   2923    2921    2922 1       1.13690000e+02    3.54217440e+02
   2923    2921    3227 1       1.24830000e+02    4.77729120e+02
   2923    2925    2926 1       1.11170000e+02    3.56895200e+02
   2923    2925    2927 1       1.11170000e+02    3.56895200e+02
   2924    2923    2925 1       1.11170000e+02    3.56895200e+02
   2925    2917    2919 1       1.03090000e+02    5.20322240e+02
   2925    2923    2921 1       1.03090000e+02    5.20322240e+02
   2926    2925    2927 1       1.07220000e+02    3.00494880e+02
   2928    2929    2930 1       1.19880000e+02    3.75723200e+02
   2931    2932    2933 1       1.20730000e+02    5.29945440e+02
   2931    2966    2965 1       1.20730000e+02    5.29945440e+02
   2931    2966    2967 1       1.19820000e+02    3.74300640e+02
   2932    2931    2966 1       1.18410000e+02    5.33794720e+02
   2932    2933    2934 1       1.19880000e+02    3.75723200e+02
   2932    2933    2935 1       1.20020000e+02    5.32790560e+02
   2933    2935    2936 1       1.20640000e+02    5.08439680e+02
   2933    2935    2965 1       1.20020000e+02    5.32790560e+02
   2934    2933    2935 1       1.19880000e+02    3.75723200e+02
   2935    2936    2937 1       1.14530000e+02    3.58485120e+02
   2935    2936    2938 1       1.16810000e+02    4.91368960e+02
   2935    2936    2960 1       1.24830000e+02    4.77729120e+02
   2935    2965    2938 1       1.20640000e+02    5.08439680e+02
   2935    2965    2966 1       1.20020000e+02    5.32790560e+02
   2936    2935    2965 1       1.20640000e+02    5.08439680e+02
   2936    2938    2939 1       1.14760000e+02    3.49364000e+02
   2936    2938    2940 1       1.22490000e+02    4.75804480e+02
   2936    2938    2965 1       1.16810000e+02    4.91368960e+02
   2936    2960    2958 1       9.60300000e+01    5.40070720e+02
   2936    2960    2961 1       1.12000000e+02    3.56811520e+02
   2936    2960    2962 1       1.03090000e+02    5.20322240e+02
   2937    2936    2938 1       1.14760000e+02    3.49364000e+02
   2937    2936    2960 1       1.13690000e+02    3.54217440e+02
   2938    2936    2960 1       1.22490000e+02    4.75804480e+02
   2938    2940    2941 1       1.12000000e+02    3.56811520e+02
   2938    2940    2942 1       9.60300000e+01    5.40070720e+02
   2938    2940    2962 1       1.03090000e+02    5.20322240e+02
   2938    2965    2966 1       1.20640000e+02    5.08439680e+02
   2939    2938    2940 1       1.13690000e+02    3.54217440e+02
   2939    2938    2965 1       1.14530000e+02    3.58485120e+02
   2940    2938    2965 1       1.24830000e+02    4.77729120e+02
   2940    2942    2943 1       1.13690000e+02    3.54217440e+02
   2940    2942    2944 1       1.24830000e+02    4.77729120e+02
   2940    2942    2958 1       1.22490000e+02    4.75804480e+02
   2940    2962    2960 1       1.03830000e+02    5.17477120e+02
   2940    2962    2963 1       1.11170000e+02    3.56895200e+02
   2940    2962    2964 1       1.11170000e+02    3.56895200e+02
   2941    2940    2942 1       1.12000000e+02    3.56811520e+02
   2941    2940    2962 1       1.11170000e+02    3.56895200e+02
   2942    2940    2962 1       1.03090000e+02    5.20322240e+02
   2942    2944    2945 1       1.20640000e+02    5.08439680e+02
   2942    2944    2953 1       1.20640000e+02    5.08439680e+02
   2942    2958    2945 1       1.16810000e+02    4.91368960e+02
   2942    2958    2959 1       1.14760000e+02    3.49364000e+02
   2942    2958    2960 1       1.22490000e+02    4.75804480e+02
   2943    2942    2944 1       1.14530000e+02    3.58485120e+02
   2943    2942    2958 1       1.14760000e+02    3.49364000e+02
   2944    2942    2958 1       1.16810000e+02    4.91368960e+02
   2944    2945    2946 1       1.20020000e+02    5.32790560e+02
   2944    2945    2958 1       1.20640000e+02    5.08439680e+02
   2944    2953    2952 1       1.20020000e+02    5.32790560e+02
   2944    2953    2954 1       1.20830000e+02    5.08272320e+02
   2945    2944    2953 1       1.20020000e+02    5.32790560e+02
   2945    2946    2947 1       1.20830000e+02    5.08272320e+02
   2945    2946    2951 1       1.20020000e+02    5.32790560e+02
   2945    2958    2959 1       1.14530000e+02    3.58485120e+02
   2945    2958    2960 1       1.24830000e+02    4.77729120e+02
   2946    2945    2958 1       1.20640000e+02    5.08439680e+02
   2946    2947    2948 1       1.10630000e+02    3.64928480e+02
   2946    2947    2949 1       1.10630000e+02    3.64928480e+02
   2946    2947    2950 1       1.10630000e+02    3.64928480e+02
   2946    2951    2952 1       1.20020000e+02    5.32790560e+02
   2946    2951    3542 1       1.20640000e+02    5.08439680e+02
   2947    2946    2951 1       1.20830000e+02    5.08272320e+02
   2948    2947    2949 1       1.07730000e+02    2.99574400e+02
   2948    2947    2950 1       1.07730000e+02    2.99574400e+02
   2949    2947    2950 1       1.07730000e+02    2.99574400e+02
   2951    2952    2953 1       1.20020000e+02    5.32790560e+02
   2951    2952    3540 1       1.20640000e+02    5.08439680e+02
   2951    3542    3540 1       1.16810000e+02    4.91368960e+02
   2951    3542    3543 1       1.14530000e+02    3.58485120e+02
   2952    2951    3542 1       1.20640000e+02    5.08439680e+02
   2952    3540    3541 1       1.14530000e+02    3.58485120e+02
   2952    3540    3542 1       1.16810000e+02    4.91368960e+02
   2953    2952    3540 1       1.20640000e+02    5.08439680e+02
   2953    2954    2955 1       1.10630000e+02    3.64928480e+02
   2953    2954    2956 1       1.10630000e+02    3.64928480e+02
   2953    2954    2957 1       1.10630000e+02    3.64928480e+02
   2954    2953    2952 1       1.20830000e+02    5.08272320e+02
   2955    2954    2956 1       1.07730000e+02    2.99574400e+02
   2955    2954    2957 1       1.07730000e+02    2.99574400e+02
   2956    2954    2957 1       1.07730000e+02    2.99574400e+02
   2958    2960    2961 1       1.12000000e+02    3.56811520e+02
   2958    2960    2962 1       1.03090000e+02    5.20322240e+02
   2959    2958    2960 1       1.13690000e+02    3.54217440e+02
   2960    2962    2963 1       1.11170000e+02    3.56895200e+02
   2960    2962    2964 1       1.11170000e+02    3.56895200e+02
   2961    2960    2962 1       1.11170000e+02    3.56895200e+02
   2963    2962    2964 1       1.07220000e+02    3.00494880e+02
   2965    2966    2967 1       1.19880000e+02    3.75723200e+02
   2968    2972    2973 1       1.10280000e+02    5.05761920e+02
   2968    2972    2977 1       1.13070000e+02    5.03000480e+02
   2968    2972    3001 1       1.13070000e+02    5.03000480e+02
   2969    2968    2970 1       1.07730000e+02    2.99574400e+02
   2969    2968    2971 1       1.07730000e+02    2.99574400e+02
   2969    2968    2972 1       1.10530000e+02    3.60326080e+02
   2970    2968    2971 1       1.07730000e+02    2.99574400e+02
   2970    2968    2972 1       1.10530000e+02    3.60326080e+02
   2971    2968    2972 1       1.10530000e+02    3.60326080e+02
   2972    2973    2974 1       1.10530000e+02    3.60326080e+02
   2972    2973    2975 1       1.10530000e+02    3.60326080e+02
   2972    2973    2976 1       1.10530000e+02    3.60326080e+02
   2972    2977    2978 1       1.10210000e+02    5.31033280e+02
   2972    2977    2998 1       1.21870000e+02    5.06012960e+02
   2972    3001    3000 1       1.10210000e+02    5.31033280e+02
   2972    3001    3002 1       1.21870000e+02    5.06012960e+02
   2973    2972    2977 1       1.13070000e+02    5.03000480e+02
   2973    2972    3001 1       1.13070000e+02    5.03000480e+02
   2974    2973    2975 1       1.07730000e+02    2.99574400e+02
   2974    2973    2976 1       1.07730000e+02    2.99574400e+02
   2975    2973    2976 1       1.07730000e+02    2.99574400e+02
   2977    2972    3001 1       1.12520000e+02    5.08021280e+02
   2977    2978    2979 1       1.18410000e+02    5.33794720e+02
   2977    2978    3000 1       1.21100000e+02    5.12958400e+02
   2977    2998    2997 1       1.20020000e+02    5.32790560e+02
   2977    2998    2999 1       1.19880000e+02    3.75723200e+02
   2978    2977    2998 1       1.20730000e+02    5.29945440e+02
   2978    2979    2980 1       1.19820000e+02    3.74300640e+02
   2978    2979    2981 1       1.20730000e+02    5.29945440e+02
   2978    3000    3001 1       1.21100000e+02    5.12958400e+02
   2978    3000    3035 1       1.21100000e+02    5.12958400e+02
   2979    2978    3000 1       1.21100000e+02    5.12958400e+02
   2979    2981    2982 1       1.20640000e+02    5.08439680e+02
   2979    2981    2997 1       1.20020000e+02    5.32790560e+02
   2980    2979    2981 1       1.19880000e+02    3.75723200e+02
   2981    2982    2983 1       1.14530000e+02    3.58485120e+02
   2981    2982    2984 1       1.16810000e+02    4.91368960e+02
   2981    2982    2992 1       1.24830000e+02    4.77729120e+02
   2981    2997    2984 1       1.20640000e+02    5.08439680e+02
   2981    2997    2998 1       1.20020000e+02    5.32790560e+02
   2982    2981    2997 1       1.20640000e+02    5.08439680e+02
   2982    2984    2985 1       1.14760000e+02    3.49364000e+02
   2982    2984    2986 1       1.22490000e+02    4.75804480e+02
   2982    2984    2997 1       1.16810000e+02    4.91368960e+02
   2982    2992    2990 1       9.60300000e+01    5.40070720e+02
   2982    2992    2993 1       1.12000000e+02    3.56811520e+02
   2982    2992    2994 1       1.03090000e+02    5.20322240e+02
   2983    2982    2984 1       1.14760000e+02    3.49364000e+02
   2983    2982    2992 1       1.13690000e+02    3.54217440e+02
   2984    2982    2992 1       1.22490000e+02    4.75804480e+02
   2984    2986    2987 1       1.12000000e+02    3.56811520e+02
   2984    2986    2988 1       9.60300000e+01    5.40070720e+02
   2984    2986    2994 1       1.03090000e+02    5.20322240e+02
   2984    2997    2998 1       1.20640000e+02    5.08439680e+02
   2985    2984    2986 1       1.13690000e+02    3.54217440e+02
   2985    2984    2997 1       1.14530000e+02    3.58485120e+02
   2986    2984    2997 1       1.24830000e+02    4.77729120e+02
   2986    2988    2989 1       1.13690000e+02    3.54217440e+02
   2986    2988    2990 1       1.22490000e+02    4.75804480e+02
   2986    2988    5022 1       1.24830000e+02    4.77729120e+02
   2986    2994    2992 1       1.03830000e+02    5.17477120e+02
   2986    2994    2995 1       1.11170000e+02    3.56895200e+02
   2986    2994    2996 1       1.11170000e+02    3.56895200e+02
   2987    2986    2994 1       1.11170000e+02    3.56895200e+02
   2988    2986    2987 1       1.12000000e+02    3.56811520e+02
   2988    2990    2991 1       1.14760000e+02    3.49364000e+02
   2990    2988    2989 1       1.14760000e+02    3.49364000e+02
   2990    2992    2993 1       1.12000000e+02    3.56811520e+02
   2992    2990    2988 1       1.22490000e+02    4.75804480e+02
   2992    2990    2991 1       1.13690000e+02    3.54217440e+02
   2992    2990    5021 1       1.24830000e+02    4.77729120e+02
   2992    2994    2995 1       1.11170000e+02    3.56895200e+02
   2992    2994    2996 1       1.11170000e+02    3.56895200e+02
   2993    2992    2994 1       1.11170000e+02    3.56895200e+02
   2994    2986    2988 1       1.03090000e+02    5.20322240e+02
   2994    2992    2990 1       1.03090000e+02    5.20322240e+02
   2995    2994    2996 1       1.07220000e+02    3.00494880e+02
   2997    2998    2999 1       1.19880000e+02    3.75723200e+02
   3000    3001    3002 1       1.20730000e+02    5.29945440e+02
   3000    3035    3034 1       1.20730000e+02    5.29945440e+02
   3000    3035    3036 1       1.19820000e+02    3.74300640e+02
   3001    3000    3035 1       1.18410000e+02    5.33794720e+02
   3001    3002    3003 1       1.19880000e+02    3.75723200e+02
   3001    3002    3004 1       1.20020000e+02    5.32790560e+02
   3002    3004    3005 1       1.20640000e+02    5.08439680e+02
   3002    3004    3034 1       1.20020000e+02    5.32790560e+02
   3003    3002    3004 1       1.19880000e+02    3.75723200e+02
   3004    3005    3006 1       1.14530000e+02    3.58485120e+02
   3004    3005    3007 1       1.16810000e+02    4.91368960e+02
   3004    3005    3029 1       1.24830000e+02    4.77729120e+02
   3004    3034    3007 1       1.20640000e+02    5.08439680e+02
   3004    3034    3035 1       1.20020000e+02    5.32790560e+02
   3005    3004    3034 1       1.20640000e+02    5.08439680e+02
   3005    3007    3008 1       1.14760000e+02    3.49364000e+02
   3005    3007    3009 1       1.22490000e+02    4.75804480e+02
   3005    3007    3034 1       1.16810000e+02    4.91368960e+02
   3005    3029    3027 1       9.60300000e+01    5.40070720e+02
   3005    3029    3030 1       1.12000000e+02    3.56811520e+02
   3005    3029    3031 1       1.03090000e+02    5.20322240e+02
   3006    3005    3007 1       1.14760000e+02    3.49364000e+02
   3006    3005    3029 1       1.13690000e+02    3.54217440e+02
   3007    3005    3029 1       1.22490000e+02    4.75804480e+02
   3007    3009    3010 1       1.12000000e+02    3.56811520e+02
   3007    3009    3011 1       9.60300000e+01    5.40070720e+02
   3007    3009    3031 1       1.03090000e+02    5.20322240e+02
   3007    3034    3035 1       1.20640000e+02    5.08439680e+02
   3008    3007    3009 1       1.13690000e+02    3.54217440e+02
   3008    3007    3034 1       1.14530000e+02    3.58485120e+02
   3009    3007    3034 1       1.24830000e+02    4.77729120e+02
   3009    3011    3012 1       1.13690000e+02    3.54217440e+02
   3009    3011    3013 1       1.24830000e+02    4.77729120e+02
   3009    3011    3027 1       1.22490000e+02    4.75804480e+02
   3009    3031    3029 1       1.03830000e+02    5.17477120e+02
   3009    3031    3032 1       1.11170000e+02    3.56895200e+02
   3009    3031    3033 1       1.11170000e+02    3.56895200e+02
   3010    3009    3011 1       1.12000000e+02    3.56811520e+02
   3010    3009    3031 1       1.11170000e+02    3.56895200e+02
   3011    3009    3031 1       1.03090000e+02    5.20322240e+02
   3011    3013    3014 1       1.20640000e+02    5.08439680e+02
   3011    3013    3022 1       1.20640000e+02    5.08439680e+02
   3011    3027    3014 1       1.16810000e+02    4.91368960e+02
   3011    3027    3028 1       1.14760000e+02    3.49364000e+02
   3011    3027    3029 1       1.22490000e+02    4.75804480e+02
   3012    3011    3013 1       1.14530000e+02    3.58485120e+02
   3012    3011    3027 1       1.14760000e+02    3.49364000e+02
   3013    3011    3027 1       1.16810000e+02    4.91368960e+02
   3013    3014    3015 1       1.20020000e+02    5.32790560e+02
   3013    3014    3027 1       1.20640000e+02    5.08439680e+02
   3013    3022    3021 1       1.20020000e+02    5.32790560e+02
   3013    3022    3023 1       1.20830000e+02    5.08272320e+02
   3014    3013    3022 1       1.20020000e+02    5.32790560e+02
   3014    3015    3016 1       1.20830000e+02    5.08272320e+02
   3014    3015    3020 1       1.20020000e+02    5.32790560e+02
   3014    3027    3028 1       1.14530000e+02    3.58485120e+02
   3014    3027    3029 1       1.24830000e+02    4.77729120e+02
   3015    3014    3027 1       1.20640000e+02    5.08439680e+02
   3015    3016    3017 1       1.10630000e+02    3.64928480e+02
   3015    3016    3018 1       1.10630000e+02    3.64928480e+02
   3015    3016    3019 1       1.10630000e+02    3.64928480e+02
   3015    3020    3021 1       1.20020000e+02    5.32790560e+02
   3015    3020    3954 1       1.20640000e+02    5.08439680e+02
   3016    3015    3020 1       1.20830000e+02    5.08272320e+02
   3017    3016    3018 1       1.07730000e+02    2.99574400e+02
   3017    3016    3019 1       1.07730000e+02    2.99574400e+02
   3018    3016    3019 1       1.07730000e+02    2.99574400e+02
   3020    3021    3022 1       1.20020000e+02    5.32790560e+02
   3020    3021    3956 1       1.20640000e+02    5.08439680e+02
   3020    3954    3955 1       1.14530000e+02    3.58485120e+02
   3020    3954    3956 1       1.16810000e+02    4.91368960e+02
   3021    3020    3954 1       1.20640000e+02    5.08439680e+02
   3021    3956    3954 1       1.16810000e+02    4.91368960e+02
   3021    3956    3957 1       1.14530000e+02    3.58485120e+02
   3022    3021    3956 1       1.20640000e+02    5.08439680e+02
   3022    3023    3024 1       1.10630000e+02    3.64928480e+02
   3022    3023    3025 1       1.10630000e+02    3.64928480e+02
   3022    3023    3026 1       1.10630000e+02    3.64928480e+02
   3023    3022    3021 1       1.20830000e+02    5.08272320e+02
   3024    3023    3025 1       1.07730000e+02    2.99574400e+02
   3024    3023    3026 1       1.07730000e+02    2.99574400e+02
   3025    3023    3026 1       1.07730000e+02    2.99574400e+02
   3027    3029    3030 1       1.12000000e+02    3.56811520e+02
   3027    3029    3031 1       1.03090000e+02    5.20322240e+02
   3028    3027    3029 1       1.13690000e+02    3.54217440e+02
   3029    3031    3032 1       1.11170000e+02    3.56895200e+02
   3029    3031    3033 1       1.11170000e+02    3.56895200e+02
   3030    3029    3031 1       1.11170000e+02    3.56895200e+02
   3032    3031    3033 1       1.07220000e+02    3.00494880e+02
   3034    3035    3036 1       1.19880000e+02    3.75723200e+02
   3037    3041    3042 1       1.10280000e+02    5.05761920e+02
   3037    3041    3046 1       1.13070000e+02    5.03000480e+02
   3037    3041    3070 1       1.13070000e+02    5.03000480e+02
   3038    3037    3039 1       1.07730000e+02    2.99574400e+02
   3038    3037    3040 1       1.07730000e+02    2.99574400e+02
   3038    3037    3041 1       1.10530000e+02    3.60326080e+02
   3039    3037    3040 1       1.07730000e+02    2.99574400e+02
   3039    3037    3041 1       1.10530000e+02    3.60326080e+02
   3040    3037    3041 1       1.10530000e+02    3.60326080e+02
   3041    3042    3043 1       1.10530000e+02    3.60326080e+02
   3041    3042    3044 1       1.10530000e+02    3.60326080e+02
   3041    3042    3045 1       1.10530000e+02    3.60326080e+02
   3041    3046    3047 1       1.10210000e+02    5.31033280e+02
   3041    3046    3067 1       1.21870000e+02    5.06012960e+02
   3041    3070    3069 1       1.10210000e+02    5.31033280e+02
   3041    3070    3071 1       1.21870000e+02    5.06012960e+02
   3042    3041    3046 1       1.13070000e+02    5.03000480e+02
   3042    3041    3070 1       1.13070000e+02    5.03000480e+02
   3043    3042    3044 1       1.07730000e+02    2.99574400e+02
   3043    3042    3045 1       1.07730000e+02    2.99574400e+02
   3044    3042    3045 1       1.07730000e+02    2.99574400e+02
   3046    3041    3070 1       1.12520000e+02    5.08021280e+02
   3046    3047    3048 1       1.18410000e+02    5.33794720e+02
   3046    3047    3069 1       1.21100000e+02    5.12958400e+02
   3046    3067    3066 1       1.20020000e+02    5.32790560e+02
   3046    3067    3068 1       1.19880000e+02    3.75723200e+02
   3047    3046    3067 1       1.20730000e+02    5.29945440e+02
   3047    3048    3049 1       1.19820000e+02    3.74300640e+02
   3047    3048    3050 1       1.20730000e+02    5.29945440e+02
   3047    3069    3070 1       1.21100000e+02    5.12958400e+02
   3047    3069    3104 1       1.21100000e+02    5.12958400e+02
   3048    3047    3069 1       1.21100000e+02    5.12958400e+02
   3048    3050    3051 1       1.20640000e+02    5.08439680e+02
   3048    3050    3066 1       1.20020000e+02    5.32790560e+02
   3049    3048    3050 1       1.19880000e+02    3.75723200e+02
   3050    3051    3052 1       1.14530000e+02    3.58485120e+02
   3050    3051    3053 1       1.16810000e+02    4.91368960e+02
   3050    3051    3061 1       1.24830000e+02    4.77729120e+02
   3050    3066    3053 1       1.20640000e+02    5.08439680e+02
   3050    3066    3067 1       1.20020000e+02    5.32790560e+02
   3051    3050    3066 1       1.20640000e+02    5.08439680e+02
   3051    3053    3054 1       1.14760000e+02    3.49364000e+02
   3051    3053    3055 1       1.22490000e+02    4.75804480e+02
   3051    3053    3066 1       1.16810000e+02    4.91368960e+02
   3051    3061    3059 1       9.60300000e+01    5.40070720e+02
   3051    3061    3062 1       1.12000000e+02    3.56811520e+02
   3051    3061    3063 1       1.03090000e+02    5.20322240e+02
   3052    3051    3053 1       1.14760000e+02    3.49364000e+02
   3052    3051    3061 1       1.13690000e+02    3.54217440e+02
   3053    3051    3061 1       1.22490000e+02    4.75804480e+02
   3053    3055    3056 1       1.12000000e+02    3.56811520e+02
   3053    3055    3057 1       9.60300000e+01    5.40070720e+02
   3053    3055    3063 1       1.03090000e+02    5.20322240e+02
   3053    3066    3067 1       1.20640000e+02    5.08439680e+02
   3054    3053    3055 1       1.13690000e+02    3.54217440e+02
   3054    3053    3066 1       1.14530000e+02    3.58485120e+02
   3055    3053    3066 1       1.24830000e+02    4.77729120e+02
   3055    3057    3058 1       1.13690000e+02    3.54217440e+02
   3055    3057    3059 1       1.22490000e+02    4.75804480e+02
   3055    3057    3366 1       1.24830000e+02    4.77729120e+02
   3055    3063    3061 1       1.03830000e+02    5.17477120e+02
   3055    3063    3064 1       1.11170000e+02    3.56895200e+02
   3055    3063    3065 1       1.11170000e+02    3.56895200e+02
   3056    3055    3063 1       1.11170000e+02    3.56895200e+02
   3057    3055    3056 1       1.12000000e+02    3.56811520e+02
   3057    3059    3060 1       1.14760000e+02    3.49364000e+02
   3059    3057    3058 1       1.14760000e+02    3.49364000e+02
   3059    3061    3062 1       1.12000000e+02    3.56811520e+02
   3061    3059    3057 1       1.22490000e+02    4.75804480e+02
   3061    3059    3060 1       1.13690000e+02    3.54217440e+02
   3061    3059    3365 1       1.24830000e+02    4.77729120e+02
   3061    3063    3064 1       1.11170000e+02    3.56895200e+02
   3061    3063    3065 1       1.11170000e+02    3.56895200e+02
   3062    3061    3063 1       1.11170000e+02    3.56895200e+02
   3063    3055    3057 1       1.03090000e+02    5.20322240e+02
   3063    3061    3059 1       1.03090000e+02    5.20322240e+02
   3064    3063    3065 1       1.07220000e+02    3.00494880e+02
   3066    3067    3068 1       1.19880000e+02    3.75723200e+02
   3069    3070    3071 1       1.20730000e+02    5.29945440e+02
   3069    3104    3103 1       1.20730000e+02    5.29945440e+02
   3069    3104    3105 1       1.19820000e+02    3.74300640e+02
   3070    3069    3104 1       1.18410000e+02    5.33794720e+02
   3070    3071    3072 1       1.19880000e+02    3.75723200e+02
   3070    3071    3073 1       1.20020000e+02    5.32790560e+02
   3071    3073    3074 1       1.20640000e+02    5.08439680e+02
   3071    3073    3103 1       1.20020000e+02    5.32790560e+02
   3072    3071    3073 1       1.19880000e+02    3.75723200e+02
   3073    3074    3075 1       1.14530000e+02    3.58485120e+02
   3073    3074    3076 1       1.16810000e+02    4.91368960e+02
   3073    3074    3098 1       1.24830000e+02    4.77729120e+02
   3073    3103    3076 1       1.20640000e+02    5.08439680e+02
   3073    3103    3104 1       1.20020000e+02    5.32790560e+02
   3074    3073    3103 1       1.20640000e+02    5.08439680e+02
   3074    3076    3077 1       1.14760000e+02    3.49364000e+02
   3074    3076    3078 1       1.22490000e+02    4.75804480e+02
   3074    3076    3103 1       1.16810000e+02    4.91368960e+02
   3074    3098    3096 1       9.60300000e+01    5.40070720e+02
   3074    3098    3099 1       1.12000000e+02    3.56811520e+02
   3074    3098    3100 1       1.03090000e+02    5.20322240e+02
   3075    3074    3076 1       1.14760000e+02    3.49364000e+02
   3075    3074    3098 1       1.13690000e+02    3.54217440e+02
   3076    3074    3098 1       1.22490000e+02    4.75804480e+02
   3076    3078    3079 1       1.12000000e+02    3.56811520e+02
   3076    3078    3080 1       9.60300000e+01    5.40070720e+02
   3076    3078    3100 1       1.03090000e+02    5.20322240e+02
   3076    3103    3104 1       1.20640000e+02    5.08439680e+02
   3077    3076    3078 1       1.13690000e+02    3.54217440e+02
   3077    3076    3103 1       1.14530000e+02    3.58485120e+02
   3078    3076    3103 1       1.24830000e+02    4.77729120e+02
   3078    3080    3081 1       1.13690000e+02    3.54217440e+02
   3078    3080    3082 1       1.24830000e+02    4.77729120e+02
   3078    3080    3096 1       1.22490000e+02    4.75804480e+02
   3078    3100    3098 1       1.03830000e+02    5.17477120e+02
   3078    3100    3101 1       1.11170000e+02    3.56895200e+02
   3078    3100    3102 1       1.11170000e+02    3.56895200e+02
   3079    3078    3080 1       1.12000000e+02    3.56811520e+02
   3079    3078    3100 1       1.11170000e+02    3.56895200e+02
   3080    3078    3100 1       1.03090000e+02    5.20322240e+02
   3080    3082    3083 1       1.20640000e+02    5.08439680e+02
   3080    3082    3091 1       1.20640000e+02    5.08439680e+02
   3080    3096    3083 1       1.16810000e+02    4.91368960e+02
   3080    3096    3097 1       1.14760000e+02    3.49364000e+02
   3080    3096    3098 1       1.22490000e+02    4.75804480e+02
   3081    3080    3082 1       1.14530000e+02    3.58485120e+02
   3081    3080    3096 1       1.14760000e+02    3.49364000e+02
   3082    3080    3096 1       1.16810000e+02    4.91368960e+02
   3082    3083    3084 1       1.20020000e+02    5.32790560e+02
   3082    3083    3096 1       1.20640000e+02    5.08439680e+02
   3082    3091    3090 1       1.20020000e+02    5.32790560e+02
   3082    3091    3092 1       1.20830000e+02    5.08272320e+02
   3083    3082    3091 1       1.20020000e+02    5.32790560e+02
   3083    3084    3085 1       1.20830000e+02    5.08272320e+02
   3083    3084    3089 1       1.20020000e+02    5.32790560e+02
   3083    3096    3097 1       1.14530000e+02    3.58485120e+02
   3083    3096    3098 1       1.24830000e+02    4.77729120e+02
   3084    3083    3096 1       1.20640000e+02    5.08439680e+02
   3084    3085    3086 1       1.10630000e+02    3.64928480e+02
   3084    3085    3087 1       1.10630000e+02    3.64928480e+02
   3084    3085    3088 1       1.10630000e+02    3.64928480e+02
   3084    3089     782 1       1.20640000e+02    5.08439680e+02
   3084    3089    3090 1       1.20020000e+02    5.32790560e+02
   3085    3084    3089 1       1.20830000e+02    5.08272320e+02
   3086    3085    3087 1       1.07730000e+02    2.99574400e+02
   3086    3085    3088 1       1.07730000e+02    2.99574400e+02
   3087    3085    3088 1       1.07730000e+02    2.99574400e+02
   3089     782     780 1       1.16810000e+02    4.91368960e+02
   3089     782     783 1       1.14530000e+02    3.58485120e+02
   3089    3090     780 1       1.20640000e+02    5.08439680e+02
   3089    3090    3091 1       1.20020000e+02    5.32790560e+02
   3090     780     781 1       1.14530000e+02    3.58485120e+02
   3090     780     782 1       1.16810000e+02    4.91368960e+02
   3090    3089     782 1       1.20640000e+02    5.08439680e+02
   3091    3090     780 1       1.20640000e+02    5.08439680e+02
   3091    3092    3093 1       1.10630000e+02    3.64928480e+02
   3091    3092    3094 1       1.10630000e+02    3.64928480e+02
   3091    3092    3095 1       1.10630000e+02    3.64928480e+02
   3092    3091    3090 1       1.20830000e+02    5.08272320e+02
   3093    3092    3094 1       1.07730000e+02    2.99574400e+02
   3093    3092    3095 1       1.07730000e+02    2.99574400e+02
   3094    3092    3095 1       1.07730000e+02    2.99574400e+02
   3096    3098    3099 1       1.12000000e+02    3.56811520e+02
   3096    3098    3100 1       1.03090000e+02    5.20322240e+02
   3097    3096    3098 1       1.13690000e+02    3.54217440e+02
   3098    3100    3101 1       1.11170000e+02    3.56895200e+02
   3098    3100    3102 1       1.11170000e+02    3.56895200e+02
   3099    3098    3100 1       1.11170000e+02    3.56895200e+02
   3101    3100    3102 1       1.07220000e+02    3.00494880e+02
   3103    3104    3105 1       1.19880000e+02    3.75723200e+02
   3106    3110    3111 1       1.10280000e+02    5.05761920e+02
   3106    3110    3115 1       1.13070000e+02    5.03000480e+02
   3106    3110    3139 1       1.13070000e+02    5.03000480e+02
   3107    3106    3108 1       1.07730000e+02    2.99574400e+02
   3107    3106    3109 1       1.07730000e+02    2.99574400e+02
   3107    3106    3110 1       1.10530000e+02    3.60326080e+02
   3108    3106    3109 1       1.07730000e+02    2.99574400e+02
   3108    3106    3110 1       1.10530000e+02    3.60326080e+02
   3109    3106    3110 1       1.10530000e+02    3.60326080e+02
   3110    3111    3112 1       1.10530000e+02    3.60326080e+02
   3110    3111    3113 1       1.10530000e+02    3.60326080e+02
   3110    3111    3114 1       1.10530000e+02    3.60326080e+02
   3110    3115    3116 1       1.10210000e+02    5.31033280e+02
   3110    3115    3136 1       1.21870000e+02    5.06012960e+02
   3110    3139    3138 1       1.10210000e+02    5.31033280e+02
   3110    3139    3140 1       1.21870000e+02    5.06012960e+02
   3111    3110    3115 1       1.13070000e+02    5.03000480e+02
   3111    3110    3139 1       1.13070000e+02    5.03000480e+02
   3112    3111    3113 1       1.07730000e+02    2.99574400e+02
   3112    3111    3114 1       1.07730000e+02    2.99574400e+02
   3113    3111    3114 1       1.07730000e+02    2.99574400e+02
   3115    3110    3139 1       1.12520000e+02    5.08021280e+02
   3115    3116    3117 1       1.18410000e+02    5.33794720e+02
   3115    3116    3138 1       1.21100000e+02    5.12958400e+02
   3115    3136    3135 1       1.20020000e+02    5.32790560e+02
   3115    3136    3137 1       1.19880000e+02    3.75723200e+02
   3116    3115    3136 1       1.20730000e+02    5.29945440e+02
   3116    3117    3118 1       1.19820000e+02    3.74300640e+02
   3116    3117    3119 1       1.20730000e+02    5.29945440e+02
   3116    3138    3139 1       1.21100000e+02    5.12958400e+02
   3116    3138    3173 1       1.21100000e+02    5.12958400e+02
   3117    3116    3138 1       1.21100000e+02    5.12958400e+02
   3117    3119    3120 1       1.20640000e+02    5.08439680e+02
   3117    3119    3135 1       1.20020000e+02    5.32790560e+02
   3118    3117    3119 1       1.19880000e+02    3.75723200e+02
   3119    3120    3121 1       1.14530000e+02    3.58485120e+02
   3119    3120    3122 1       1.16810000e+02    4.91368960e+02
   3119    3120    3130 1       1.24830000e+02    4.77729120e+02
   3119    3135    3122 1       1.20640000e+02    5.08439680e+02
   3119    3135    3136 1       1.20020000e+02    5.32790560e+02
   3120    3119    3135 1       1.20640000e+02    5.08439680e+02
   3120    3122    3123 1       1.14760000e+02    3.49364000e+02
   3120    3122    3124 1       1.22490000e+02    4.75804480e+02
   3120    3122    3135 1       1.16810000e+02    4.91368960e+02
   3120    3130    3128 1       9.60300000e+01    5.40070720e+02
   3120    3130    3131 1       1.12000000e+02    3.56811520e+02
   3120    3130    3132 1       1.03090000e+02    5.20322240e+02
   3121    3120    3122 1       1.14760000e+02    3.49364000e+02
   3121    3120    3130 1       1.13690000e+02    3.54217440e+02
   3122    3120    3130 1       1.22490000e+02    4.75804480e+02
   3122    3124    3125 1       1.12000000e+02    3.56811520e+02
   3122    3124    3126 1       9.60300000e+01    5.40070720e+02
   3122    3124    3132 1       1.03090000e+02    5.20322240e+02
   3122    3135    3136 1       1.20640000e+02    5.08439680e+02
   3123    3122    3124 1       1.13690000e+02    3.54217440e+02
   3123    3122    3135 1       1.14530000e+02    3.58485120e+02
   3124    3122    3135 1       1.24830000e+02    4.77729120e+02
   3124    3126    1364 1       1.24830000e+02    4.77729120e+02
   3124    3126    3127 1       1.13690000e+02    3.54217440e+02
   3124    3126    3128 1       1.22490000e+02    4.75804480e+02
   3124    3132    3130 1       1.03830000e+02    5.17477120e+02
   3124    3132    3133 1       1.11170000e+02    3.56895200e+02
   3124    3132    3134 1       1.11170000e+02    3.56895200e+02
   3125    3124    3132 1       1.11170000e+02    3.56895200e+02
   3126    3124    3125 1       1.12000000e+02    3.56811520e+02
   3126    3128    3129 1       1.14760000e+02    3.49364000e+02
   3128    3126    3127 1       1.14760000e+02    3.49364000e+02
   3128    3130    3131 1       1.12000000e+02    3.56811520e+02
   3130    3128    1365 1       1.24830000e+02    4.77729120e+02
   3130    3128    3126 1       1.22490000e+02    4.75804480e+02
   3130    3128    3129 1       1.13690000e+02    3.54217440e+02
   3130    3132    3133 1       1.11170000e+02    3.56895200e+02
   3130    3132    3134 1       1.11170000e+02    3.56895200e+02
   3131    3130    3132 1       1.11170000e+02    3.56895200e+02
   3132    3124    3126 1       1.03090000e+02    5.20322240e+02
   3132    3130    3128 1       1.03090000e+02    5.20322240e+02
   3133    3132    3134 1       1.07220000e+02    3.00494880e+02
   3135    3136    3137 1       1.19880000e+02    3.75723200e+02
   3138    3139    3140 1       1.20730000e+02    5.29945440e+02
   3138    3173    3172 1       1.20730000e+02    5.29945440e+02
   3138    3173    3174 1       1.19820000e+02    3.74300640e+02
   3139    3138    3173 1       1.18410000e+02    5.33794720e+02
   3139    3140    3141 1       1.19880000e+02    3.75723200e+02
   3139    3140    3142 1       1.20020000e+02    5.32790560e+02
   3140    3142    3143 1       1.20640000e+02    5.08439680e+02
   3140    3142    3172 1       1.20020000e+02    5.32790560e+02
   3141    3140    3142 1       1.19880000e+02    3.75723200e+02
   3142    3143    3144 1       1.14530000e+02    3.58485120e+02
   3142    3143    3145 1       1.16810000e+02    4.91368960e+02
   3142    3143    3167 1       1.24830000e+02    4.77729120e+02
   3142    3172    3145 1       1.20640000e+02    5.08439680e+02
   3142    3172    3173 1       1.20020000e+02    5.32790560e+02
   3143    3142    3172 1       1.20640000e+02    5.08439680e+02
   3143    3145    3146 1       1.14760000e+02    3.49364000e+02
   3143    3145    3147 1       1.22490000e+02    4.75804480e+02
   3143    3145    3172 1       1.16810000e+02    4.91368960e+02
   3143    3167    3165 1       9.60300000e+01    5.40070720e+02
   3143    3167    3168 1       1.12000000e+02    3.56811520e+02
   3143    3167    3169 1       1.03090000e+02    5.20322240e+02
   3144    3143    3145 1       1.14760000e+02    3.49364000e+02
   3144    3143    3167 1       1.13690000e+02    3.54217440e+02
   3145    3143    3167 1       1.22490000e+02    4.75804480e+02
   3145    3147    3148 1       1.12000000e+02    3.56811520e+02
   3145    3147    3149 1       9.60300000e+01    5.40070720e+02
   3145    3147    3169 1       1.03090000e+02    5.20322240e+02
   3145    3172    3173 1       1.20640000e+02    5.08439680e+02
   3146    3145    3147 1       1.13690000e+02    3.54217440e+02
   3146    3145    3172 1       1.14530000e+02    3.58485120e+02
   3147    3145    3172 1       1.24830000e+02    4.77729120e+02
   3147    3149    3150 1       1.13690000e+02    3.54217440e+02
   3147    3149    3151 1       1.24830000e+02    4.77729120e+02
   3147    3149    3165 1       1.22490000e+02    4.75804480e+02
   3147    3169    3167 1       1.03830000e+02    5.17477120e+02
   3147    3169    3170 1       1.11170000e+02    3.56895200e+02
   3147    3169    3171 1       1.11170000e+02    3.56895200e+02
   3148    3147    3149 1       1.12000000e+02    3.56811520e+02
   3148    3147    3169 1       1.11170000e+02    3.56895200e+02
   3149    3147    3169 1       1.03090000e+02    5.20322240e+02
   3149    3151    3152 1       1.20640000e+02    5.08439680e+02
   3149    3151    3160 1       1.20640000e+02    5.08439680e+02
   3149    3165    3152 1       1.16810000e+02    4.91368960e+02
   3149    3165    3166 1       1.14760000e+02    3.49364000e+02
   3149    3165    3167 1       1.22490000e+02    4.75804480e+02
   3150    3149    3151 1       1.14530000e+02    3.58485120e+02
   3150    3149    3165 1       1.14760000e+02    3.49364000e+02
   3151    3149    3165 1       1.16810000e+02    4.91368960e+02
   3151    3152    3153 1       1.20020000e+02    5.32790560e+02
   3151    3152    3165 1       1.20640000e+02    5.08439680e+02
   3151    3160    3159 1       1.20020000e+02    5.32790560e+02
   3151    3160    3161 1       1.20830000e+02    5.08272320e+02
   3152    3151    3160 1       1.20020000e+02    5.32790560e+02
   3152    3153    3154 1       1.20830000e+02    5.08272320e+02
   3152    3153    3158 1       1.20020000e+02    5.32790560e+02
   3152    3165    3166 1       1.14530000e+02    3.58485120e+02
   3152    3165    3167 1       1.24830000e+02    4.77729120e+02
   3153    3152    3165 1       1.20640000e+02    5.08439680e+02
   3153    3154    3155 1       1.10630000e+02    3.64928480e+02
   3153    3154    3156 1       1.10630000e+02    3.64928480e+02
   3153    3154    3157 1       1.10630000e+02    3.64928480e+02
   3153    3158    3159 1       1.20020000e+02    5.32790560e+02
   3153    3158    3333 1       1.20640000e+02    5.08439680e+02
   3154    3153    3158 1       1.20830000e+02    5.08272320e+02
   3155    3154    3156 1       1.07730000e+02    2.99574400e+02
   3155    3154    3157 1       1.07730000e+02    2.99574400e+02
   3156    3154    3157 1       1.07730000e+02    2.99574400e+02
   3158    3159    3160 1       1.20020000e+02    5.32790560e+02
   3158    3159    3335 1       1.20640000e+02    5.08439680e+02
   3158    3333    3334 1       1.14530000e+02    3.58485120e+02
   3158    3333    3335 1       1.16810000e+02    4.91368960e+02
   3159    3158    3333 1       1.20640000e+02    5.08439680e+02
   3159    3335    3333 1       1.16810000e+02    4.91368960e+02
   3159    3335    3336 1       1.14530000e+02    3.58485120e+02
   3160    3159    3335 1       1.20640000e+02    5.08439680e+02
   3160    3161    3162 1       1.10630000e+02    3.64928480e+02
   3160    3161    3163 1       1.10630000e+02    3.64928480e+02
   3160    3161    3164 1       1.10630000e+02    3.64928480e+02
   3161    3160    3159 1       1.20830000e+02    5.08272320e+02
   3162    3161    3163 1       1.07730000e+02    2.99574400e+02
   3162    3161    3164 1       1.07730000e+02    2.99574400e+02
   3163    3161    3164 1       1.07730000e+02    2.99574400e+02
   3165    3167    3168 1       1.12000000e+02    3.56811520e+02
   3165    3167    3169 1       1.03090000e+02    5.20322240e+02
   3166    3165    3167 1       1.13690000e+02    3.54217440e+02
   3167    3169    3170 1       1.11170000e+02    3.56895200e+02
   3167    3169    3171 1       1.11170000e+02    3.56895200e+02
   3168    3167    3169 1       1.11170000e+02    3.56895200e+02
   3170    3169    3171 1       1.07220000e+02    3.00494880e+02
   3172    3173    3174 1       1.19880000e+02    3.75723200e+02
   3175    3179    3180 1       1.10280000e+02    5.05761920e+02
   3175    3179    3184 1       1.13070000e+02    5.03000480e+02
   3175    3179    3208 1       1.13070000e+02    5.03000480e+02
   3176    3175    3177 1       1.07730000e+02    2.99574400e+02
   3176    3175    3178 1       1.07730000e+02    2.99574400e+02
   3176    3175    3179 1       1.10530000e+02    3.60326080e+02
   3177    3175    3178 1       1.07730000e+02    2.99574400e+02
   3177    3175    3179 1       1.10530000e+02    3.60326080e+02
   3178    3175    3179 1       1.10530000e+02    3.60326080e+02
   3179    3180    3181 1       1.10530000e+02    3.60326080e+02
   3179    3180    3182 1       1.10530000e+02    3.60326080e+02
   3179    3180    3183 1       1.10530000e+02    3.60326080e+02
   3179    3184    3185 1       1.10210000e+02    5.31033280e+02
   3179    3184    3205 1       1.21870000e+02    5.06012960e+02
   3179    3208    3207 1       1.10210000e+02    5.31033280e+02
   3179    3208    3209 1       1.21870000e+02    5.06012960e+02
   3180    3179    3184 1       1.13070000e+02    5.03000480e+02
   3180    3179    3208 1       1.13070000e+02    5.03000480e+02
   3181    3180    3182 1       1.07730000e+02    2.99574400e+02
   3181    3180    3183 1       1.07730000e+02    2.99574400e+02
   3182    3180    3183 1       1.07730000e+02    2.99574400e+02
   3184    3179    3208 1       1.12520000e+02    5.08021280e+02
   3184    3185    3186 1       1.18410000e+02    5.33794720e+02
   3184    3185    3207 1       1.21100000e+02    5.12958400e+02
   3184    3205    3204 1       1.20020000e+02    5.32790560e+02
   3184    3205    3206 1       1.19880000e+02    3.75723200e+02
   3185    3184    3205 1       1.20730000e+02    5.29945440e+02
   3185    3186    3187 1       1.19820000e+02    3.74300640e+02
   3185    3186    3188 1       1.20730000e+02    5.29945440e+02
   3185    3207    3208 1       1.21100000e+02    5.12958400e+02
   3185    3207    3242 1       1.21100000e+02    5.12958400e+02
   3186    3185    3207 1       1.21100000e+02    5.12958400e+02
   3186    3188    3189 1       1.20640000e+02    5.08439680e+02
   3186    3188    3204 1       1.20020000e+02    5.32790560e+02
   3187    3186    3188 1       1.19880000e+02    3.75723200e+02
   3188    3189    3190 1       1.14530000e+02    3.58485120e+02
   3188    3189    3191 1       1.16810000e+02    4.91368960e+02
   3188    3189    3199 1       1.24830000e+02    4.77729120e+02
   3188    3204    3191 1       1.20640000e+02    5.08439680e+02
   3188    3204    3205 1       1.20020000e+02    5.32790560e+02
   3189    3188    3204 1       1.20640000e+02    5.08439680e+02
   3189    3191    3192 1       1.14760000e+02    3.49364000e+02
   3189    3191    3193 1       1.22490000e+02    4.75804480e+02
   3189    3191    3204 1       1.16810000e+02    4.91368960e+02
   3189    3199    3197 1       9.60300000e+01    5.40070720e+02
   3189    3199    3200 1       1.12000000e+02    3.56811520e+02
   3189    3199    3201 1       1.03090000e+02    5.20322240e+02
   3190    3189    3191 1       1.14760000e+02    3.49364000e+02
   3190    3189    3199 1       1.13690000e+02    3.54217440e+02
   3191    3189    3199 1       1.22490000e+02    4.75804480e+02
   3191    3193    3194 1       1.12000000e+02    3.56811520e+02
   3191    3193    3195 1       9.60300000e+01    5.40070720e+02
   3191    3193    3201 1       1.03090000e+02    5.20322240e+02
   3191    3204    3205 1       1.20640000e+02    5.08439680e+02
   3192    3191    3193 1       1.13690000e+02    3.54217440e+02
   3192    3191    3204 1       1.14530000e+02    3.58485120e+02
   3193    3191    3204 1       1.24830000e+02    4.77729120e+02
   3193    3195    1227 1       1.24830000e+02    4.77729120e+02
   3193    3195    3196 1       1.13690000e+02    3.54217440e+02
   3193    3195    3197 1       1.22490000e+02    4.75804480e+02
   3193    3201    3199 1       1.03830000e+02    5.17477120e+02
   3193    3201    3202 1       1.11170000e+02    3.56895200e+02
   3193    3201    3203 1       1.11170000e+02    3.56895200e+02
   3194    3193    3201 1       1.11170000e+02    3.56895200e+02
   3195    3193    3194 1       1.12000000e+02    3.56811520e+02
   3195    3197    3198 1       1.14760000e+02    3.49364000e+02
   3197    3195    3196 1       1.14760000e+02    3.49364000e+02
   3197    3199    3200 1       1.12000000e+02    3.56811520e+02
   3199    3197    1226 1       1.24830000e+02    4.77729120e+02
   3199    3197    3195 1       1.22490000e+02    4.75804480e+02
   3199    3197    3198 1       1.13690000e+02    3.54217440e+02
   3199    3201    3202 1       1.11170000e+02    3.56895200e+02
   3199    3201    3203 1       1.11170000e+02    3.56895200e+02
   3200    3199    3201 1       1.11170000e+02    3.56895200e+02
   3201    3193    3195 1       1.03090000e+02    5.20322240e+02
   3201    3199    3197 1       1.03090000e+02    5.20322240e+02
   3202    3201    3203 1       1.07220000e+02    3.00494880e+02
   3204    3205    3206 1       1.19880000e+02    3.75723200e+02
   3207    3208    3209 1       1.20730000e+02    5.29945440e+02
   3207    3242    3241 1       1.20730000e+02    5.29945440e+02
   3207    3242    3243 1       1.19820000e+02    3.74300640e+02
   3208    3207    3242 1       1.18410000e+02    5.33794720e+02
   3208    3209    3210 1       1.19880000e+02    3.75723200e+02
   3208    3209    3211 1       1.20020000e+02    5.32790560e+02
   3209    3211    3212 1       1.20640000e+02    5.08439680e+02
   3209    3211    3241 1       1.20020000e+02    5.32790560e+02
   3210    3209    3211 1       1.19880000e+02    3.75723200e+02
   3211    3212    3213 1       1.14530000e+02    3.58485120e+02
   3211    3212    3214 1       1.16810000e+02    4.91368960e+02
   3211    3212    3236 1       1.24830000e+02    4.77729120e+02
   3211    3241    3214 1       1.20640000e+02    5.08439680e+02
   3211    3241    3242 1       1.20020000e+02    5.32790560e+02
   3212    3211    3241 1       1.20640000e+02    5.08439680e+02
   3212    3214    3215 1       1.14760000e+02    3.49364000e+02
   3212    3214    3216 1       1.22490000e+02    4.75804480e+02
   3212    3214    3241 1       1.16810000e+02    4.91368960e+02
   3212    3236    3234 1       9.60300000e+01    5.40070720e+02
   3212    3236    3237 1       1.12000000e+02    3.56811520e+02
   3212    3236    3238 1       1.03090000e+02    5.20322240e+02
   3213    3212    3214 1       1.14760000e+02    3.49364000e+02
   3213    3212    3236 1       1.13690000e+02    3.54217440e+02
   3214    3212    3236 1       1.22490000e+02    4.75804480e+02
   3214    3216    3217 1       1.12000000e+02    3.56811520e+02
   3214    3216    3218 1       9.60300000e+01    5.40070720e+02
   3214    3216    3238 1       1.03090000e+02    5.20322240e+02
   3214    3241    3242 1       1.20640000e+02    5.08439680e+02
   3215    3214    3216 1       1.13690000e+02    3.54217440e+02
   3215    3214    3241 1       1.14530000e+02    3.58485120e+02
   3216    3214    3241 1       1.24830000e+02    4.77729120e+02
   3216    3218    3219 1       1.13690000e+02    3.54217440e+02
   3216    3218    3220 1       1.24830000e+02    4.77729120e+02
   3216    3218    3234 1       1.22490000e+02    4.75804480e+02
   3216    3238    3236 1       1.03830000e+02    5.17477120e+02
   3216    3238    3239 1       1.11170000e+02    3.56895200e+02
   3216    3238    3240 1       1.11170000e+02    3.56895200e+02
   3217    3216    3218 1       1.12000000e+02    3.56811520e+02
   3217    3216    3238 1       1.11170000e+02    3.56895200e+02
   3218    3216    3238 1       1.03090000e+02    5.20322240e+02
   3218    3220    3221 1       1.20640000e+02    5.08439680e+02
   3218    3220    3229 1       1.20640000e+02    5.08439680e+02
   3218    3234    3221 1       1.16810000e+02    4.91368960e+02
   3218    3234    3235 1       1.14760000e+02    3.49364000e+02
   3218    3234    3236 1       1.22490000e+02    4.75804480e+02
   3219    3218    3220 1       1.14530000e+02    3.58485120e+02
   3219    3218    3234 1       1.14760000e+02    3.49364000e+02
   3220    3218    3234 1       1.16810000e+02    4.91368960e+02
   3220    3221    3222 1       1.20020000e+02    5.32790560e+02
   3220    3221    3234 1       1.20640000e+02    5.08439680e+02
   3220    3229    3228 1       1.20020000e+02    5.32790560e+02
   3220    3229    3230 1       1.20830000e+02    5.08272320e+02
   3221    3220    3229 1       1.20020000e+02    5.32790560e+02
   3221    3222    3223 1       1.20830000e+02    5.08272320e+02
   3221    3222    3227 1       1.20020000e+02    5.32790560e+02
   3221    3234    3235 1       1.14530000e+02    3.58485120e+02
   3221    3234    3236 1       1.24830000e+02    4.77729120e+02
   3222    3221    3234 1       1.20640000e+02    5.08439680e+02
   3222    3223    3224 1       1.10630000e+02    3.64928480e+02
   3222    3223    3225 1       1.10630000e+02    3.64928480e+02
   3222    3223    3226 1       1.10630000e+02    3.64928480e+02
   3222    3227    2921 1       1.20640000e+02    5.08439680e+02
   3222    3227    3228 1       1.20020000e+02    5.32790560e+02
   3223    3222    3227 1       1.20830000e+02    5.08272320e+02
   3224    3223    3225 1       1.07730000e+02    2.99574400e+02
   3224    3223    3226 1       1.07730000e+02    2.99574400e+02
   3225    3223    3226 1       1.07730000e+02    2.99574400e+02
   3227    2921    2919 1       1.16810000e+02    4.91368960e+02
   3227    2921    2922 1       1.14530000e+02    3.58485120e+02
   3227    3228    2919 1       1.20640000e+02    5.08439680e+02
   3227    3228    3229 1       1.20020000e+02    5.32790560e+02
   3228    2919    2920 1       1.14530000e+02    3.58485120e+02
   3228    2919    2921 1       1.16810000e+02    4.91368960e+02
   3228    3227    2921 1       1.20640000e+02    5.08439680e+02
   3229    3228    2919 1       1.20640000e+02    5.08439680e+02
   3229    3230    3231 1       1.10630000e+02    3.64928480e+02
   3229    3230    3232 1       1.10630000e+02    3.64928480e+02
   3229    3230    3233 1       1.10630000e+02    3.64928480e+02
   3230    3229    3228 1       1.20830000e+02    5.08272320e+02
   3231    3230    3232 1       1.07730000e+02    2.99574400e+02
   3231    3230    3233 1       1.07730000e+02    2.99574400e+02
   3232    3230    3233 1       1.07730000e+02    2.99574400e+02
   3234    3236    3237 1       1.12000000e+02    3.56811520e+02
   3234    3236    3238 1       1.03090000e+02    5.20322240e+02
   3235    3234    3236 1       1.13690000e+02    3.54217440e+02
   3236    3238    3239 1       1.11170000e+02    3.56895200e+02
   3236    3238    3240 1       1.11170000e+02    3.56895200e+02
   3237    3236    3238 1       1.11170000e+02    3.56895200e+02
   3239    3238    3240 1       1.07220000e+02    3.00494880e+02
   3241    3242    3243 1       1.19880000e+02    3.75723200e+02
   3244    3248    3249 1       1.10280000e+02    5.05761920e+02
   3244    3248    3253 1       1.13070000e+02    5.03000480e+02
   3244    3248    3277 1       1.13070000e+02    5.03000480e+02
   3245    3244    3246 1       1.07730000e+02    2.99574400e+02
   3245    3244    3247 1       1.07730000e+02    2.99574400e+02
   3245    3244    3248 1       1.10530000e+02    3.60326080e+02
   3246    3244    3247 1       1.07730000e+02    2.99574400e+02
   3246    3244    3248 1       1.10530000e+02    3.60326080e+02
   3247    3244    3248 1       1.10530000e+02    3.60326080e+02
   3248    3249    3250 1       1.10530000e+02    3.60326080e+02
   3248    3249    3251 1       1.10530000e+02    3.60326080e+02
   3248    3249    3252 1       1.10530000e+02    3.60326080e+02
   3248    3253    3254 1       1.10210000e+02    5.31033280e+02
   3248    3253    3274 1       1.21870000e+02    5.06012960e+02
   3248    3277    3276 1       1.10210000e+02    5.31033280e+02
   3248    3277    3278 1       1.21870000e+02    5.06012960e+02
   3249    3248    3253 1       1.13070000e+02    5.03000480e+02
   3249    3248    3277 1       1.13070000e+02    5.03000480e+02
   3250    3249    3251 1       1.07730000e+02    2.99574400e+02
   3250    3249    3252 1       1.07730000e+02    2.99574400e+02
   3251    3249    3252 1       1.07730000e+02    2.99574400e+02
   3253    3248    3277 1       1.12520000e+02    5.08021280e+02
   3253    3254    3255 1       1.18410000e+02    5.33794720e+02
   3253    3254    3276 1       1.21100000e+02    5.12958400e+02
   3253    3274    3273 1       1.20020000e+02    5.32790560e+02
   3253    3274    3275 1       1.19880000e+02    3.75723200e+02
   3254    3253    3274 1       1.20730000e+02    5.29945440e+02
   3254    3255    3256 1       1.19820000e+02    3.74300640e+02
   3254    3255    3257 1       1.20730000e+02    5.29945440e+02
   3254    3276    3277 1       1.21100000e+02    5.12958400e+02
   3254    3276    3311 1       1.21100000e+02    5.12958400e+02
   3255    3254    3276 1       1.21100000e+02    5.12958400e+02
   3255    3257    3258 1       1.20640000e+02    5.08439680e+02
   3255    3257    3273 1       1.20020000e+02    5.32790560e+02
   3256    3255    3257 1       1.19880000e+02    3.75723200e+02
   3257    3258    3259 1       1.14530000e+02    3.58485120e+02
   3257    3258    3260 1       1.16810000e+02    4.91368960e+02
   3257    3258    3268 1       1.24830000e+02    4.77729120e+02
   3257    3273    3260 1       1.20640000e+02    5.08439680e+02
   3257    3273    3274 1       1.20020000e+02    5.32790560e+02
   3258    3257    3273 1       1.20640000e+02    5.08439680e+02
   3258    3260    3261 1       1.14760000e+02    3.49364000e+02
   3258    3260    3262 1       1.22490000e+02    4.75804480e+02
   3258    3260    3273 1       1.16810000e+02    4.91368960e+02
   3258    3268    3266 1       9.60300000e+01    5.40070720e+02
   3258    3268    3269 1       1.12000000e+02    3.56811520e+02
   3258    3268    3270 1       1.03090000e+02    5.20322240e+02
   3259    3258    3260 1       1.14760000e+02    3.49364000e+02
   3259    3258    3268 1       1.13690000e+02    3.54217440e+02
   3260    3258    3268 1       1.22490000e+02    4.75804480e+02
   3260    3262    3263 1       1.12000000e+02    3.56811520e+02
   3260    3262    3264 1       9.60300000e+01    5.40070720e+02
   3260    3262    3270 1       1.03090000e+02    5.20322240e+02
   3260    3273    3274 1       1.20640000e+02    5.08439680e+02
   3261    3260    3262 1       1.13690000e+02    3.54217440e+02
   3261    3260    3273 1       1.14530000e+02    3.58485120e+02
   3262    3260    3273 1       1.24830000e+02    4.77729120e+02
   3262    3264    2330 1       1.24830000e+02    4.77729120e+02
   3262    3264    3265 1       1.13690000e+02    3.54217440e+02
   3262    3264    3266 1       1.22490000e+02    4.75804480e+02
   3262    3270    3268 1       1.03830000e+02    5.17477120e+02
   3262    3270    3271 1       1.11170000e+02    3.56895200e+02
   3262    3270    3272 1       1.11170000e+02    3.56895200e+02
   3263    3262    3270 1       1.11170000e+02    3.56895200e+02
   3264    3262    3263 1       1.12000000e+02    3.56811520e+02
   3264    3266    3267 1       1.14760000e+02    3.49364000e+02
   3266    3264    3265 1       1.14760000e+02    3.49364000e+02
   3266    3268    3269 1       1.12000000e+02    3.56811520e+02
   3268    3266    2331 1       1.24830000e+02    4.77729120e+02
   3268    3266    3264 1       1.22490000e+02    4.75804480e+02
   3268    3266    3267 1       1.13690000e+02    3.54217440e+02
   3268    3270    3271 1       1.11170000e+02    3.56895200e+02
   3268    3270    3272 1       1.11170000e+02    3.56895200e+02
   3269    3268    3270 1       1.11170000e+02    3.56895200e+02
   3270    3262    3264 1       1.03090000e+02    5.20322240e+02
   3270    3268    3266 1       1.03090000e+02    5.20322240e+02
   3271    3270    3272 1       1.07220000e+02    3.00494880e+02
   3273    3274    3275 1       1.19880000e+02    3.75723200e+02
   3276    3277    3278 1       1.20730000e+02    5.29945440e+02
   3276    3311    3310 1       1.20730000e+02    5.29945440e+02
   3276    3311    3312 1       1.19820000e+02    3.74300640e+02
   3277    3276    3311 1       1.18410000e+02    5.33794720e+02
   3277    3278    3279 1       1.19880000e+02    3.75723200e+02
   3277    3278    3280 1       1.20020000e+02    5.32790560e+02
   3278    3280    3281 1       1.20640000e+02    5.08439680e+02
   3278    3280    3310 1       1.20020000e+02    5.32790560e+02
   3279    3278    3280 1       1.19880000e+02    3.75723200e+02
   3280    3281    3282 1       1.14530000e+02    3.58485120e+02
   3280    3281    3283 1       1.16810000e+02    4.91368960e+02
   3280    3281    3305 1       1.24830000e+02    4.77729120e+02
   3280    3310    3283 1       1.20640000e+02    5.08439680e+02
   3280    3310    3311 1       1.20020000e+02    5.32790560e+02
   3281    3280    3310 1       1.20640000e+02    5.08439680e+02
   3281    3283    3284 1       1.14760000e+02    3.49364000e+02
   3281    3283    3285 1       1.22490000e+02    4.75804480e+02
   3281    3283    3310 1       1.16810000e+02    4.91368960e+02
   3281    3305    3303 1       9.60300000e+01    5.40070720e+02
   3281    3305    3306 1       1.12000000e+02    3.56811520e+02
   3281    3305    3307 1       1.03090000e+02    5.20322240e+02
   3282    3281    3283 1       1.14760000e+02    3.49364000e+02
   3282    3281    3305 1       1.13690000e+02    3.54217440e+02
   3283    3281    3305 1       1.22490000e+02    4.75804480e+02
   3283    3285    3286 1       1.12000000e+02    3.56811520e+02
   3283    3285    3287 1       9.60300000e+01    5.40070720e+02
   3283    3285    3307 1       1.03090000e+02    5.20322240e+02
   3283    3310    3311 1       1.20640000e+02    5.08439680e+02
   3284    3283    3285 1       1.13690000e+02    3.54217440e+02
   3284    3283    3310 1       1.14530000e+02    3.58485120e+02
   3285    3283    3310 1       1.24830000e+02    4.77729120e+02
   3285    3287    3288 1       1.13690000e+02    3.54217440e+02
   3285    3287    3289 1       1.24830000e+02    4.77729120e+02
   3285    3287    3303 1       1.22490000e+02    4.75804480e+02
   3285    3307    3305 1       1.03830000e+02    5.17477120e+02
   3285    3307    3308 1       1.11170000e+02    3.56895200e+02
   3285    3307    3309 1       1.11170000e+02    3.56895200e+02
   3286    3285    3287 1       1.12000000e+02    3.56811520e+02
   3286    3285    3307 1       1.11170000e+02    3.56895200e+02
   3287    3285    3307 1       1.03090000e+02    5.20322240e+02
   3287    3289    3290 1       1.20640000e+02    5.08439680e+02
   3287    3289    3298 1       1.20640000e+02    5.08439680e+02
   3287    3303    3290 1       1.16810000e+02    4.91368960e+02
   3287    3303    3304 1       1.14760000e+02    3.49364000e+02
   3287    3303    3305 1       1.22490000e+02    4.75804480e+02
   3288    3287    3289 1       1.14530000e+02    3.58485120e+02
   3288    3287    3303 1       1.14760000e+02    3.49364000e+02
   3289    3287    3303 1       1.16810000e+02    4.91368960e+02
   3289    3290    3291 1       1.20020000e+02    5.32790560e+02
   3289    3290    3303 1       1.20640000e+02    5.08439680e+02
   3289    3298    3297 1       1.20020000e+02    5.32790560e+02
   3289    3298    3299 1       1.20830000e+02    5.08272320e+02
   3290    3289    3298 1       1.20020000e+02    5.32790560e+02
   3290    3291    3292 1       1.20830000e+02    5.08272320e+02
   3290    3291    3296 1       1.20020000e+02    5.32790560e+02
   3290    3303    3304 1       1.14530000e+02    3.58485120e+02
   3290    3303    3305 1       1.24830000e+02    4.77729120e+02
   3291    3290    3303 1       1.20640000e+02    5.08439680e+02
   3291    3292    3293 1       1.10630000e+02    3.64928480e+02
   3291    3292    3294 1       1.10630000e+02    3.64928480e+02
   3291    3292    3295 1       1.10630000e+02    3.64928480e+02
   3291    3296    3297 1       1.20020000e+02    5.32790560e+02
   3291    3296    5748 1       1.20640000e+02    5.08439680e+02
   3292    3291    3296 1       1.20830000e+02    5.08272320e+02
   3293    3292    3294 1       1.07730000e+02    2.99574400e+02
   3293    3292    3295 1       1.07730000e+02    2.99574400e+02
   3294    3292    3295 1       1.07730000e+02    2.99574400e+02
   3296    3297    3298 1       1.20020000e+02    5.32790560e+02
   3296    3297    5750 1       1.20640000e+02    5.08439680e+02
   3296    5748    5749 1       1.14530000e+02    3.58485120e+02
   3296    5748    5750 1       1.16810000e+02    4.91368960e+02
   3297    3296    5748 1       1.20640000e+02    5.08439680e+02
   3297    5750    5748 1       1.16810000e+02    4.91368960e+02
   3297    5750    5751 1       1.14530000e+02    3.58485120e+02
   3298    3297    5750 1       1.20640000e+02    5.08439680e+02
   3298    3299    3300 1       1.10630000e+02    3.64928480e+02
   3298    3299    3301 1       1.10630000e+02    3.64928480e+02
   3298    3299    3302 1       1.10630000e+02    3.64928480e+02
   3299    3298    3297 1       1.20830000e+02    5.08272320e+02
   3300    3299    3301 1       1.07730000e+02    2.99574400e+02
   3300    3299    3302 1       1.07730000e+02    2.99574400e+02
   3301    3299    3302 1       1.07730000e+02    2.99574400e+02
   3303    3305    3306 1       1.12000000e+02    3.56811520e+02
   3303    3305    3307 1       1.03090000e+02    5.20322240e+02
   3304    3303    3305 1       1.13690000e+02    3.54217440e+02
   3305    3307    3308 1       1.11170000e+02    3.56895200e+02
   3305    3307    3309 1       1.11170000e+02    3.56895200e+02
   3306    3305    3307 1       1.11170000e+02    3.56895200e+02
   3308    3307    3309 1       1.07220000e+02    3.00494880e+02
   3310    3311    3312 1       1.19880000e+02    3.75723200e+02
   3313    3317    3318 1       1.10280000e+02    5.05761920e+02
   3313    3317    3322 1       1.13070000e+02    5.03000480e+02
   3313    3317    3346 1       1.13070000e+02    5.03000480e+02
   3314    3313    3315 1       1.07730000e+02    2.99574400e+02
   3314    3313    3316 1       1.07730000e+02    2.99574400e+02
   3314    3313    3317 1       1.10530000e+02    3.60326080e+02
   3315    3313    3316 1       1.07730000e+02    2.99574400e+02
   3315    3313    3317 1       1.10530000e+02    3.60326080e+02
   3316    3313    3317 1       1.10530000e+02    3.60326080e+02
   3317    3318    3319 1       1.10530000e+02    3.60326080e+02
   3317    3318    3320 1       1.10530000e+02    3.60326080e+02
   3317    3318    3321 1       1.10530000e+02    3.60326080e+02
   3317    3322    3323 1       1.10210000e+02    5.31033280e+02
   3317    3322    3343 1       1.21870000e+02    5.06012960e+02
   3317    3346    3345 1       1.10210000e+02    5.31033280e+02
   3317    3346    3347 1       1.21870000e+02    5.06012960e+02
   3318    3317    3322 1       1.13070000e+02    5.03000480e+02
   3318    3317    3346 1       1.13070000e+02    5.03000480e+02
   3319    3318    3320 1       1.07730000e+02    2.99574400e+02
   3319    3318    3321 1       1.07730000e+02    2.99574400e+02
   3320    3318    3321 1       1.07730000e+02    2.99574400e+02
   3322    3317    3346 1       1.12520000e+02    5.08021280e+02
   3322    3323    3324 1       1.18410000e+02    5.33794720e+02
   3322    3323    3345 1       1.21100000e+02    5.12958400e+02
   3322    3343    3342 1       1.20020000e+02    5.32790560e+02
   3322    3343    3344 1       1.19880000e+02    3.75723200e+02
   3323    3322    3343 1       1.20730000e+02    5.29945440e+02
   3323    3324    3325 1       1.19820000e+02    3.74300640e+02
   3323    3324    3326 1       1.20730000e+02    5.29945440e+02
   3323    3345    3346 1       1.21100000e+02    5.12958400e+02
   3323    3345    3380 1       1.21100000e+02    5.12958400e+02
   3324    3323    3345 1       1.21100000e+02    5.12958400e+02
   3324    3326    3327 1       1.20640000e+02    5.08439680e+02
   3324    3326    3342 1       1.20020000e+02    5.32790560e+02
   3325    3324    3326 1       1.19880000e+02    3.75723200e+02
   3326    3327    3328 1       1.14530000e+02    3.58485120e+02
   3326    3327    3329 1       1.16810000e+02    4.91368960e+02
   3326    3327    3337 1       1.24830000e+02    4.77729120e+02
   3326    3342    3329 1       1.20640000e+02    5.08439680e+02
   3326    3342    3343 1       1.20020000e+02    5.32790560e+02
   3327    3326    3342 1       1.20640000e+02    5.08439680e+02
   3327    3329    3330 1       1.14760000e+02    3.49364000e+02
   3327    3329    3331 1       1.22490000e+02    4.75804480e+02
   3327    3329    3342 1       1.16810000e+02    4.91368960e+02
   3327    3337    3335 1       9.60300000e+01    5.40070720e+02
   3327    3337    3338 1       1.12000000e+02    3.56811520e+02
   3327    3337    3339 1       1.03090000e+02    5.20322240e+02
   3328    3327    3329 1       1.14760000e+02    3.49364000e+02
   3328    3327    3337 1       1.13690000e+02    3.54217440e+02
   3329    3327    3337 1       1.22490000e+02    4.75804480e+02
   3329    3331    3332 1       1.12000000e+02    3.56811520e+02
   3329    3331    3333 1       9.60300000e+01    5.40070720e+02
   3329    3331    3339 1       1.03090000e+02    5.20322240e+02
   3329    3342    3343 1       1.20640000e+02    5.08439680e+02
   3330    3329    3331 1       1.13690000e+02    3.54217440e+02
   3330    3329    3342 1       1.14530000e+02    3.58485120e+02
   3331    3329    3342 1       1.24830000e+02    4.77729120e+02
   3331    3333    3158 1       1.24830000e+02    4.77729120e+02
   3331    3333    3334 1       1.13690000e+02    3.54217440e+02
   3331    3333    3335 1       1.22490000e+02    4.75804480e+02
   3331    3339    3337 1       1.03830000e+02    5.17477120e+02
   3331    3339    3340 1       1.11170000e+02    3.56895200e+02
   3331    3339    3341 1       1.11170000e+02    3.56895200e+02
   3332    3331    3339 1       1.11170000e+02    3.56895200e+02
   3333    3331    3332 1       1.12000000e+02    3.56811520e+02
   3333    3335    3336 1       1.14760000e+02    3.49364000e+02
   3335    3333    3334 1       1.14760000e+02    3.49364000e+02
   3335    3337    3338 1       1.12000000e+02    3.56811520e+02
   3337    3335    3159 1       1.24830000e+02    4.77729120e+02
   3337    3335    3333 1       1.22490000e+02    4.75804480e+02
   3337    3335    3336 1       1.13690000e+02    3.54217440e+02
   3337    3339    3340 1       1.11170000e+02    3.56895200e+02
   3337    3339    3341 1       1.11170000e+02    3.56895200e+02
   3338    3337    3339 1       1.11170000e+02    3.56895200e+02
   3339    3331    3333 1       1.03090000e+02    5.20322240e+02
   3339    3337    3335 1       1.03090000e+02    5.20322240e+02
   3340    3339    3341 1       1.07220000e+02    3.00494880e+02
   3342    3343    3344 1       1.19880000e+02    3.75723200e+02
   3345    3346    3347 1       1.20730000e+02    5.29945440e+02
   3345    3380    3379 1       1.20730000e+02    5.29945440e+02
   3345    3380    3381 1       1.19820000e+02    3.74300640e+02
   3346    3345    3380 1       1.18410000e+02    5.33794720e+02
   3346    3347    3348 1       1.19880000e+02    3.75723200e+02
   3346    3347    3349 1       1.20020000e+02    5.32790560e+02
   3347    3349    3350 1       1.20640000e+02    5.08439680e+02
   3347    3349    3379 1       1.20020000e+02    5.32790560e+02
   3348    3347    3349 1       1.19880000e+02    3.75723200e+02
   3349    3350    3351 1       1.14530000e+02    3.58485120e+02
   3349    3350    3352 1       1.16810000e+02    4.91368960e+02
   3349    3350    3374 1       1.24830000e+02    4.77729120e+02
   3349    3379    3352 1       1.20640000e+02    5.08439680e+02
   3349    3379    3380 1       1.20020000e+02    5.32790560e+02
   3350    3349    3379 1       1.20640000e+02    5.08439680e+02
   3350    3352    3353 1       1.14760000e+02    3.49364000e+02
   3350    3352    3354 1       1.22490000e+02    4.75804480e+02
   3350    3352    3379 1       1.16810000e+02    4.91368960e+02
   3350    3374    3372 1       9.60300000e+01    5.40070720e+02
   3350    3374    3375 1       1.12000000e+02    3.56811520e+02
   3350    3374    3376 1       1.03090000e+02    5.20322240e+02
   3351    3350    3352 1       1.14760000e+02    3.49364000e+02
   3351    3350    3374 1       1.13690000e+02    3.54217440e+02
   3352    3350    3374 1       1.22490000e+02    4.75804480e+02
   3352    3354    3355 1       1.12000000e+02    3.56811520e+02
   3352    3354    3356 1       9.60300000e+01    5.40070720e+02
   3352    3354    3376 1       1.03090000e+02    5.20322240e+02
   3352    3379    3380 1       1.20640000e+02    5.08439680e+02
   3353    3352    3354 1       1.13690000e+02    3.54217440e+02
   3353    3352    3379 1       1.14530000e+02    3.58485120e+02
   3354    3352    3379 1       1.24830000e+02    4.77729120e+02
   3354    3356    3357 1       1.13690000e+02    3.54217440e+02
   3354    3356    3358 1       1.24830000e+02    4.77729120e+02
   3354    3356    3372 1       1.22490000e+02    4.75804480e+02
   3354    3376    3374 1       1.03830000e+02    5.17477120e+02
   3354    3376    3377 1       1.11170000e+02    3.56895200e+02
   3354    3376    3378 1       1.11170000e+02    3.56895200e+02
   3355    3354    3356 1       1.12000000e+02    3.56811520e+02
   3355    3354    3376 1       1.11170000e+02    3.56895200e+02
   3356    3354    3376 1       1.03090000e+02    5.20322240e+02
   3356    3358    3359 1       1.20640000e+02    5.08439680e+02
   3356    3358    3367 1       1.20640000e+02    5.08439680e+02
   3356    3372    3359 1       1.16810000e+02    4.91368960e+02
   3356    3372    3373 1       1.14760000e+02    3.49364000e+02
   3356    3372    3374 1       1.22490000e+02    4.75804480e+02
   3357    3356    3358 1       1.14530000e+02    3.58485120e+02
   3357    3356    3372 1       1.14760000e+02    3.49364000e+02
   3358    3356    3372 1       1.16810000e+02    4.91368960e+02
   3358    3359    3360 1       1.20020000e+02    5.32790560e+02
   3358    3359    3372 1       1.20640000e+02    5.08439680e+02
   3358    3367    3366 1       1.20020000e+02    5.32790560e+02
   3358    3367    3368 1       1.20830000e+02    5.08272320e+02
   3359    3358    3367 1       1.20020000e+02    5.32790560e+02
   3359    3360    3361 1       1.20830000e+02    5.08272320e+02
   3359    3360    3365 1       1.20020000e+02    5.32790560e+02
   3359    3372    3373 1       1.14530000e+02    3.58485120e+02
   3359    3372    3374 1       1.24830000e+02    4.77729120e+02
   3360    3359    3372 1       1.20640000e+02    5.08439680e+02
   3360    3361    3362 1       1.10630000e+02    3.64928480e+02
   3360    3361    3363 1       1.10630000e+02    3.64928480e+02
   3360    3361    3364 1       1.10630000e+02    3.64928480e+02
   3360    3365    3059 1       1.20640000e+02    5.08439680e+02
   3360    3365    3366 1       1.20020000e+02    5.32790560e+02
   3361    3360    3365 1       1.20830000e+02    5.08272320e+02
   3362    3361    3363 1       1.07730000e+02    2.99574400e+02
   3362    3361    3364 1       1.07730000e+02    2.99574400e+02
   3363    3361    3364 1       1.07730000e+02    2.99574400e+02
   3365    3059    3057 1       1.16810000e+02    4.91368960e+02
   3365    3059    3060 1       1.14530000e+02    3.58485120e+02
   3365    3366    3057 1       1.20640000e+02    5.08439680e+02
   3365    3366    3367 1       1.20020000e+02    5.32790560e+02
   3366    3057    3058 1       1.14530000e+02    3.58485120e+02
   3366    3057    3059 1       1.16810000e+02    4.91368960e+02
   3366    3365    3059 1       1.20640000e+02    5.08439680e+02
   3367    3366    3057 1       1.20640000e+02    5.08439680e+02
   3367    3368    3369 1       1.10630000e+02    3.64928480e+02
   3367    3368    3370 1       1.10630000e+02    3.64928480e+02
   3367    3368    3371 1       1.10630000e+02    3.64928480e+02
   3368    3367    3366 1       1.20830000e+02    5.08272320e+02
   3369    3368    3370 1       1.07730000e+02    2.99574400e+02
   3369    3368    3371 1       1.07730000e+02    2.99574400e+02
   3370    3368    3371 1       1.07730000e+02    2.99574400e+02
   3372    3374    3375 1       1.12000000e+02    3.56811520e+02
   3372    3374    3376 1       1.03090000e+02    5.20322240e+02
   3373    3372    3374 1       1.13690000e+02    3.54217440e+02
   3374    3376    3377 1       1.11170000e+02    3.56895200e+02
   3374    3376    3378 1       1.11170000e+02    3.56895200e+02
   3375    3374    3376 1       1.11170000e+02    3.56895200e+02
   3377    3376    3378 1       1.07220000e+02    3.00494880e+02
   3379    3380    3381 1       1.19880000e+02    3.75723200e+02
   3382    3386    3387 1       1.10280000e+02    5.05761920e+02
   3382    3386    3391 1       1.13070000e+02    5.03000480e+02
   3382    3386    3415 1       1.13070000e+02    5.03000480e+02
   3383    3382    3384 1       1.07730000e+02    2.99574400e+02
   3383    3382    3385 1       1.07730000e+02    2.99574400e+02
   3383    3382    3386 1       1.10530000e+02    3.60326080e+02
   3384    3382    3385 1       1.07730000e+02    2.99574400e+02
   3384    3382    3386 1       1.10530000e+02    3.60326080e+02
   3385    3382    3386 1       1.10530000e+02    3.60326080e+02
   3386    3387    3388 1       1.10530000e+02    3.60326080e+02
   3386    3387    3389 1       1.10530000e+02    3.60326080e+02
   3386    3387    3390 1       1.10530000e+02    3.60326080e+02
   3386    3391    3392 1       1.10210000e+02    5.31033280e+02
   3386    3391    3412 1       1.21870000e+02    5.06012960e+02
   3386    3415    3414 1       1.10210000e+02    5.31033280e+02
   3386    3415    3416 1       1.21870000e+02    5.06012960e+02
   3387    3386    3391 1       1.13070000e+02    5.03000480e+02
   3387    3386    3415 1       1.13070000e+02    5.03000480e+02
   3388    3387    3389 1       1.07730000e+02    2.99574400e+02
   3388    3387    3390 1       1.07730000e+02    2.99574400e+02
   3389    3387    3390 1       1.07730000e+02    2.99574400e+02
   3391    3386    3415 1       1.12520000e+02    5.08021280e+02
   3391    3392    3393 1       1.18410000e+02    5.33794720e+02
   3391    3392    3414 1       1.21100000e+02    5.12958400e+02
   3391    3412    3411 1       1.20020000e+02    5.32790560e+02
   3391    3412    3413 1       1.19880000e+02    3.75723200e+02
   3392    3391    3412 1       1.20730000e+02    5.29945440e+02
   3392    3393    3394 1       1.19820000e+02    3.74300640e+02
   3392    3393    3395 1       1.20730000e+02    5.29945440e+02
   3392    3414    3415 1       1.21100000e+02    5.12958400e+02
   3392    3414    3449 1       1.21100000e+02    5.12958400e+02
   3393    3392    3414 1       1.21100000e+02    5.12958400e+02
   3393    3395    3396 1       1.20640000e+02    5.08439680e+02
   3393    3395    3411 1       1.20020000e+02    5.32790560e+02
   3394    3393    3395 1       1.19880000e+02    3.75723200e+02
   3395    3396    3397 1       1.14530000e+02    3.58485120e+02
   3395    3396    3398 1       1.16810000e+02    4.91368960e+02
   3395    3396    3406 1       1.24830000e+02    4.77729120e+02
   3395    3411    3398 1       1.20640000e+02    5.08439680e+02
   3395    3411    3412 1       1.20020000e+02    5.32790560e+02
   3396    3395    3411 1       1.20640000e+02    5.08439680e+02
   3396    3398    3399 1       1.14760000e+02    3.49364000e+02
   3396    3398    3400 1       1.22490000e+02    4.75804480e+02
   3396    3398    3411 1       1.16810000e+02    4.91368960e+02
   3396    3406    3404 1       9.60300000e+01    5.40070720e+02
   3396    3406    3407 1       1.12000000e+02    3.56811520e+02
   3396    3406    3408 1       1.03090000e+02    5.20322240e+02
   3397    3396    3398 1       1.14760000e+02    3.49364000e+02
   3397    3396    3406 1       1.13690000e+02    3.54217440e+02
   3398    3396    3406 1       1.22490000e+02    4.75804480e+02
   3398    3400    3401 1       1.12000000e+02    3.56811520e+02
   3398    3400    3402 1       9.60300000e+01    5.40070720e+02
   3398    3400    3408 1       1.03090000e+02    5.20322240e+02
   3398    3411    3412 1       1.20640000e+02    5.08439680e+02
   3399    3398    3400 1       1.13690000e+02    3.54217440e+02
   3399    3398    3411 1       1.14530000e+02    3.58485120e+02
   3400    3398    3411 1       1.24830000e+02    4.77729120e+02
   3400    3402    3403 1       1.13690000e+02    3.54217440e+02
   3400    3402    3404 1       1.22490000e+02    4.75804480e+02
   3400    3402    4538 1       1.24830000e+02    4.77729120e+02
   3400    3408    3406 1       1.03830000e+02    5.17477120e+02
   3400    3408    3409 1       1.11170000e+02    3.56895200e+02
   3400    3408    3410 1       1.11170000e+02    3.56895200e+02
   3401    3400    3408 1       1.11170000e+02    3.56895200e+02
   3402    3400    3401 1       1.12000000e+02    3.56811520e+02
   3402    3404    3405 1       1.14760000e+02    3.49364000e+02
   3404    3402    3403 1       1.14760000e+02    3.49364000e+02
   3404    3406    3407 1       1.12000000e+02    3.56811520e+02
   3406    3404    3402 1       1.22490000e+02    4.75804480e+02
   3406    3404    3405 1       1.13690000e+02    3.54217440e+02
   3406    3404    4539 1       1.24830000e+02    4.77729120e+02
   3406    3408    3409 1       1.11170000e+02    3.56895200e+02
   3406    3408    3410 1       1.11170000e+02    3.56895200e+02
   3407    3406    3408 1       1.11170000e+02    3.56895200e+02
   3408    3400    3402 1       1.03090000e+02    5.20322240e+02
   3408    3406    3404 1       1.03090000e+02    5.20322240e+02
   3409    3408    3410 1       1.07220000e+02    3.00494880e+02
   3411    3412    3413 1       1.19880000e+02    3.75723200e+02
   3414    3415    3416 1       1.20730000e+02    5.29945440e+02
   3414    3449    3448 1       1.20730000e+02    5.29945440e+02
   3414    3449    3450 1       1.19820000e+02    3.74300640e+02
   3415    3414    3449 1       1.18410000e+02    5.33794720e+02
   3415    3416    3417 1       1.19880000e+02    3.75723200e+02
   3415    3416    3418 1       1.20020000e+02    5.32790560e+02
   3416    3418    3419 1       1.20640000e+02    5.08439680e+02
   3416    3418    3448 1       1.20020000e+02    5.32790560e+02
   3417    3416    3418 1       1.19880000e+02    3.75723200e+02
   3418    3419    3420 1       1.14530000e+02    3.58485120e+02
   3418    3419    3421 1       1.16810000e+02    4.91368960e+02
   3418    3419    3443 1       1.24830000e+02    4.77729120e+02
   3418    3448    3421 1       1.20640000e+02    5.08439680e+02
   3418    3448    3449 1       1.20020000e+02    5.32790560e+02
   3419    3418    3448 1       1.20640000e+02    5.08439680e+02
   3419    3421    3422 1       1.14760000e+02    3.49364000e+02
   3419    3421    3423 1       1.22490000e+02    4.75804480e+02
   3419    3421    3448 1       1.16810000e+02    4.91368960e+02
   3419    3443    3441 1       9.60300000e+01    5.40070720e+02
   3419    3443    3444 1       1.12000000e+02    3.56811520e+02
   3419    3443    3445 1       1.03090000e+02    5.20322240e+02
   3420    3419    3421 1       1.14760000e+02    3.49364000e+02
   3420    3419    3443 1       1.13690000e+02    3.54217440e+02
   3421    3419    3443 1       1.22490000e+02    4.75804480e+02
   3421    3423    3424 1       1.12000000e+02    3.56811520e+02
   3421    3423    3425 1       9.60300000e+01    5.40070720e+02
   3421    3423    3445 1       1.03090000e+02    5.20322240e+02
   3421    3448    3449 1       1.20640000e+02    5.08439680e+02
   3422    3421    3423 1       1.13690000e+02    3.54217440e+02
   3422    3421    3448 1       1.14530000e+02    3.58485120e+02
   3423    3421    3448 1       1.24830000e+02    4.77729120e+02
   3423    3425    3426 1       1.13690000e+02    3.54217440e+02
   3423    3425    3427 1       1.24830000e+02    4.77729120e+02
   3423    3425    3441 1       1.22490000e+02    4.75804480e+02
   3423    3445    3443 1       1.03830000e+02    5.17477120e+02
   3423    3445    3446 1       1.11170000e+02    3.56895200e+02
   3423    3445    3447 1       1.11170000e+02    3.56895200e+02
   3424    3423    3425 1       1.12000000e+02    3.56811520e+02
   3424    3423    3445 1       1.11170000e+02    3.56895200e+02
   3425    3423    3445 1       1.03090000e+02    5.20322240e+02
   3425    3427    3428 1       1.20640000e+02    5.08439680e+02
   3425    3427    3436 1       1.20640000e+02    5.08439680e+02
   3425    3441    3428 1       1.16810000e+02    4.91368960e+02
   3425    3441    3442 1       1.14760000e+02    3.49364000e+02
   3425    3441    3443 1       1.22490000e+02    4.75804480e+02
   3426    3425    3427 1       1.14530000e+02    3.58485120e+02
   3426    3425    3441 1       1.14760000e+02    3.49364000e+02
   3427    3425    3441 1       1.16810000e+02    4.91368960e+02
   3427    3428    3429 1       1.20020000e+02    5.32790560e+02
   3427    3428    3441 1       1.20640000e+02    5.08439680e+02
   3427    3436    3435 1       1.20020000e+02    5.32790560e+02
   3427    3436    3437 1       1.20830000e+02    5.08272320e+02
   3428    3427    3436 1       1.20020000e+02    5.32790560e+02
   3428    3429    3430 1       1.20830000e+02    5.08272320e+02
   3428    3429    3434 1       1.20020000e+02    5.32790560e+02
   3428    3441    3442 1       1.14530000e+02    3.58485120e+02
   3428    3441    3443 1       1.24830000e+02    4.77729120e+02
   3429    3428    3441 1       1.20640000e+02    5.08439680e+02
   3429    3430    3431 1       1.10630000e+02    3.64928480e+02
   3429    3430    3432 1       1.10630000e+02    3.64928480e+02
   3429    3430    3433 1       1.10630000e+02    3.64928480e+02
   3429    3434    3435 1       1.20020000e+02    5.32790560e+02
   3429    3434    3611 1       1.20640000e+02    5.08439680e+02
   3430    3429    3434 1       1.20830000e+02    5.08272320e+02
   3431    3430    3432 1       1.07730000e+02    2.99574400e+02
   3431    3430    3433 1       1.07730000e+02    2.99574400e+02
   3432    3430    3433 1       1.07730000e+02    2.99574400e+02
   3434    3435    3436 1       1.20020000e+02    5.32790560e+02
   3434    3435    3609 1       1.20640000e+02    5.08439680e+02
   3434    3611    3609 1       1.16810000e+02    4.91368960e+02
   3434    3611    3612 1       1.14530000e+02    3.58485120e+02
   3435    3434    3611 1       1.20640000e+02    5.08439680e+02
   3435    3609    3610 1       1.14530000e+02    3.58485120e+02
   3435    3609    3611 1       1.16810000e+02    4.91368960e+02
   3436    3435    3609 1       1.20640000e+02    5.08439680e+02
   3436    3437    3438 1       1.10630000e+02    3.64928480e+02
   3436    3437    3439 1       1.10630000e+02    3.64928480e+02
   3436    3437    3440 1       1.10630000e+02    3.64928480e+02
   3437    3436    3435 1       1.20830000e+02    5.08272320e+02
   3438    3437    3439 1       1.07730000e+02    2.99574400e+02
   3438    3437    3440 1       1.07730000e+02    2.99574400e+02
   3439    3437    3440 1       1.07730000e+02    2.99574400e+02
   3441    3443    3444 1       1.12000000e+02    3.56811520e+02
   3441    3443    3445 1       1.03090000e+02    5.20322240e+02
   3442    3441    3443 1       1.13690000e+02    3.54217440e+02
   3443    3445    3446 1       1.11170000e+02    3.56895200e+02
   3443    3445    3447 1       1.11170000e+02    3.56895200e+02
   3444    3443    3445 1       1.11170000e+02    3.56895200e+02
   3446    3445    3447 1       1.07220000e+02    3.00494880e+02
   3448    3449    3450 1       1.19880000e+02    3.75723200e+02
   3451    3455    3456 1       1.10280000e+02    5.05761920e+02
   3451    3455    3460 1       1.13070000e+02    5.03000480e+02
   3451    3455    3484 1       1.13070000e+02    5.03000480e+02
   3452    3451    3453 1       1.07730000e+02    2.99574400e+02
   3452    3451    3454 1       1.07730000e+02    2.99574400e+02
   3452    3451    3455 1       1.10530000e+02    3.60326080e+02
   3453    3451    3454 1       1.07730000e+02    2.99574400e+02
   3453    3451    3455 1       1.10530000e+02    3.60326080e+02
   3454    3451    3455 1       1.10530000e+02    3.60326080e+02
   3455    3456    3457 1       1.10530000e+02    3.60326080e+02
   3455    3456    3458 1       1.10530000e+02    3.60326080e+02
   3455    3456    3459 1       1.10530000e+02    3.60326080e+02
   3455    3460    3461 1       1.10210000e+02    5.31033280e+02
   3455    3460    3481 1       1.21870000e+02    5.06012960e+02
   3455    3484    3483 1       1.10210000e+02    5.31033280e+02
   3455    3484    3485 1       1.21870000e+02    5.06012960e+02
   3456    3455    3460 1       1.13070000e+02    5.03000480e+02
   3456    3455    3484 1       1.13070000e+02    5.03000480e+02
   3457    3456    3458 1       1.07730000e+02    2.99574400e+02
   3457    3456    3459 1       1.07730000e+02    2.99574400e+02
   3458    3456    3459 1       1.07730000e+02    2.99574400e+02
   3460    3455    3484 1       1.12520000e+02    5.08021280e+02
   3460    3461    3462 1       1.18410000e+02    5.33794720e+02
   3460    3461    3483 1       1.21100000e+02    5.12958400e+02
   3460    3481    3480 1       1.20020000e+02    5.32790560e+02
   3460    3481    3482 1       1.19880000e+02    3.75723200e+02
   3461    3460    3481 1       1.20730000e+02    5.29945440e+02
   3461    3462    3463 1       1.19820000e+02    3.74300640e+02
   3461    3462    3464 1       1.20730000e+02    5.29945440e+02
   3461    3483    3484 1       1.21100000e+02    5.12958400e+02
   3461    3483    3518 1       1.21100000e+02    5.12958400e+02
   3462    3461    3483 1       1.21100000e+02    5.12958400e+02
   3462    3464    3465 1       1.20640000e+02    5.08439680e+02
   3462    3464    3480 1       1.20020000e+02    5.32790560e+02
   3463    3462    3464 1       1.19880000e+02    3.75723200e+02
   3464    3465    3466 1       1.14530000e+02    3.58485120e+02
   3464    3465    3467 1       1.16810000e+02    4.91368960e+02
   3464    3465    3475 1       1.24830000e+02    4.77729120e+02
   3464    3480    3467 1       1.20640000e+02    5.08439680e+02
   3464    3480    3481 1       1.20020000e+02    5.32790560e+02
   3465    3464    3480 1       1.20640000e+02    5.08439680e+02
   3465    3467    3468 1       1.14760000e+02    3.49364000e+02
   3465    3467    3469 1       1.22490000e+02    4.75804480e+02
   3465    3467    3480 1       1.16810000e+02    4.91368960e+02
   3465    3475    3473 1       9.60300000e+01    5.40070720e+02
   3465    3475    3476 1       1.12000000e+02    3.56811520e+02
   3465    3475    3477 1       1.03090000e+02    5.20322240e+02
   3466    3465    3467 1       1.14760000e+02    3.49364000e+02
   3466    3465    3475 1       1.13690000e+02    3.54217440e+02
   3467    3465    3475 1       1.22490000e+02    4.75804480e+02
   3467    3469    3470 1       1.12000000e+02    3.56811520e+02
   3467    3469    3471 1       9.60300000e+01    5.40070720e+02
   3467    3469    3477 1       1.03090000e+02    5.20322240e+02
   3467    3480    3481 1       1.20640000e+02    5.08439680e+02
   3468    3467    3469 1       1.13690000e+02    3.54217440e+02
   3468    3467    3480 1       1.14530000e+02    3.58485120e+02
   3469    3467    3480 1       1.24830000e+02    4.77729120e+02
   3469    3471     813 1       1.24830000e+02    4.77729120e+02
   3469    3471    3472 1       1.13690000e+02    3.54217440e+02
   3469    3471    3473 1       1.22490000e+02    4.75804480e+02
   3469    3477    3475 1       1.03830000e+02    5.17477120e+02
   3469    3477    3478 1       1.11170000e+02    3.56895200e+02
   3469    3477    3479 1       1.11170000e+02    3.56895200e+02
   3470    3469    3477 1       1.11170000e+02    3.56895200e+02
   3471    3469    3470 1       1.12000000e+02    3.56811520e+02
   3471    3473    3474 1       1.14760000e+02    3.49364000e+02
   3473    3471    3472 1       1.14760000e+02    3.49364000e+02
   3473    3475    3476 1       1.12000000e+02    3.56811520e+02
   3475    3473     812 1       1.24830000e+02    4.77729120e+02
   3475    3473    3471 1       1.22490000e+02    4.75804480e+02
   3475    3473    3474 1       1.13690000e+02    3.54217440e+02
   3475    3477    3478 1       1.11170000e+02    3.56895200e+02
   3475    3477    3479 1       1.11170000e+02    3.56895200e+02
   3476    3475    3477 1       1.11170000e+02    3.56895200e+02
   3477    3469    3471 1       1.03090000e+02    5.20322240e+02
   3477    3475    3473 1       1.03090000e+02    5.20322240e+02
   3478    3477    3479 1       1.07220000e+02    3.00494880e+02
   3480    3481    3482 1       1.19880000e+02    3.75723200e+02
   3483    3484    3485 1       1.20730000e+02    5.29945440e+02
   3483    3518    3517 1       1.20730000e+02    5.29945440e+02
   3483    3518    3519 1       1.19820000e+02    3.74300640e+02
   3484    3483    3518 1       1.18410000e+02    5.33794720e+02
   3484    3485    3486 1       1.19880000e+02    3.75723200e+02
   3484    3485    3487 1       1.20020000e+02    5.32790560e+02
   3485    3487    3488 1       1.20640000e+02    5.08439680e+02
   3485    3487    3517 1       1.20020000e+02    5.32790560e+02
   3486    3485    3487 1       1.19880000e+02    3.75723200e+02
   3487    3488    3489 1       1.14530000e+02    3.58485120e+02
   3487    3488    3490 1       1.16810000e+02    4.91368960e+02
   3487    3488    3512 1       1.24830000e+02    4.77729120e+02
   3487    3517    3490 1       1.20640000e+02    5.08439680e+02
   3487    3517    3518 1       1.20020000e+02    5.32790560e+02
   3488    3487    3517 1       1.20640000e+02    5.08439680e+02
   3488    3490    3491 1       1.14760000e+02    3.49364000e+02
   3488    3490    3492 1       1.22490000e+02    4.75804480e+02
   3488    3490    3517 1       1.16810000e+02    4.91368960e+02
   3488    3512    3510 1       9.60300000e+01    5.40070720e+02
   3488    3512    3513 1       1.12000000e+02    3.56811520e+02
   3488    3512    3514 1       1.03090000e+02    5.20322240e+02
   3489    3488    3490 1       1.14760000e+02    3.49364000e+02
   3489    3488    3512 1       1.13690000e+02    3.54217440e+02
   3490    3488    3512 1       1.22490000e+02    4.75804480e+02
   3490    3492    3493 1       1.12000000e+02    3.56811520e+02
   3490    3492    3494 1       9.60300000e+01    5.40070720e+02
   3490    3492    3514 1       1.03090000e+02    5.20322240e+02
   3490    3517    3518 1       1.20640000e+02    5.08439680e+02
   3491    3490    3492 1       1.13690000e+02    3.54217440e+02
   3491    3490    3517 1       1.14530000e+02    3.58485120e+02
   3492    3490    3517 1       1.24830000e+02    4.77729120e+02
   3492    3494    3495 1       1.13690000e+02    3.54217440e+02
   3492    3494    3496 1       1.24830000e+02    4.77729120e+02
   3492    3494    3510 1       1.22490000e+02    4.75804480e+02
   3492    3514    3512 1       1.03830000e+02    5.17477120e+02
   3492    3514    3515 1       1.11170000e+02    3.56895200e+02
   3492    3514    3516 1       1.11170000e+02    3.56895200e+02
   3493    3492    3494 1       1.12000000e+02    3.56811520e+02
   3493    3492    3514 1       1.11170000e+02    3.56895200e+02
   3494    3492    3514 1       1.03090000e+02    5.20322240e+02
   3494    3496    3497 1       1.20640000e+02    5.08439680e+02
   3494    3496    3505 1       1.20640000e+02    5.08439680e+02
   3494    3510    3497 1       1.16810000e+02    4.91368960e+02
   3494    3510    3511 1       1.14760000e+02    3.49364000e+02
   3494    3510    3512 1       1.22490000e+02    4.75804480e+02
   3495    3494    3496 1       1.14530000e+02    3.58485120e+02
   3495    3494    3510 1       1.14760000e+02    3.49364000e+02
   3496    3494    3510 1       1.16810000e+02    4.91368960e+02
   3496    3497    3498 1       1.20020000e+02    5.32790560e+02
   3496    3497    3510 1       1.20640000e+02    5.08439680e+02
   3496    3505    3504 1       1.20020000e+02    5.32790560e+02
   3496    3505    3506 1       1.20830000e+02    5.08272320e+02
   3497    3496    3505 1       1.20020000e+02    5.32790560e+02
   3497    3498    3499 1       1.20830000e+02    5.08272320e+02
   3497    3498    3503 1       1.20020000e+02    5.32790560e+02
   3497    3510    3511 1       1.14530000e+02    3.58485120e+02
   3497    3510    3512 1       1.24830000e+02    4.77729120e+02
   3498    3497    3510 1       1.20640000e+02    5.08439680e+02
   3498    3499    3500 1       1.10630000e+02    3.64928480e+02
   3498    3499    3501 1       1.10630000e+02    3.64928480e+02
   3498    3499    3502 1       1.10630000e+02    3.64928480e+02
   3498    3503    1401 1       1.20640000e+02    5.08439680e+02
   3498    3503    3504 1       1.20020000e+02    5.32790560e+02
   3499    3498    3503 1       1.20830000e+02    5.08272320e+02
   3500    3499    3501 1       1.07730000e+02    2.99574400e+02
   3500    3499    3502 1       1.07730000e+02    2.99574400e+02
   3501    3499    3502 1       1.07730000e+02    2.99574400e+02
   3503    1401    1402 1       1.14530000e+02    3.58485120e+02
   3503    1401    1403 1       1.16810000e+02    4.91368960e+02
   3503    3504    1403 1       1.20640000e+02    5.08439680e+02
   3503    3504    3505 1       1.20020000e+02    5.32790560e+02
   3504    1403    1401 1       1.16810000e+02    4.91368960e+02
   3504    1403    1404 1       1.14530000e+02    3.58485120e+02
   3504    3503    1401 1       1.20640000e+02    5.08439680e+02
   3505    3504    1403 1       1.20640000e+02    5.08439680e+02
   3505    3506    3507 1       1.10630000e+02    3.64928480e+02
   3505    3506    3508 1       1.10630000e+02    3.64928480e+02
   3505    3506    3509 1       1.10630000e+02    3.64928480e+02
   3506    3505    3504 1       1.20830000e+02    5.08272320e+02
   3507    3506    3508 1       1.07730000e+02    2.99574400e+02
   3507    3506    3509 1       1.07730000e+02    2.99574400e+02
   3508    3506    3509 1       1.07730000e+02    2.99574400e+02
   3510    3512    3513 1       1.12000000e+02    3.56811520e+02
   3510    3512    3514 1       1.03090000e+02    5.20322240e+02
   3511    3510    3512 1       1.13690000e+02    3.54217440e+02
   3512    3514    3515 1       1.11170000e+02    3.56895200e+02
   3512    3514    3516 1       1.11170000e+02    3.56895200e+02
   3513    3512    3514 1       1.11170000e+02    3.56895200e+02
   3515    3514    3516 1       1.07220000e+02    3.00494880e+02
   3517    3518    3519 1       1.19880000e+02    3.75723200e+02
   3520    3524    3525 1       1.10280000e+02    5.05761920e+02
   3520    3524    3529 1       1.13070000e+02    5.03000480e+02
   3520    3524    3553 1       1.13070000e+02    5.03000480e+02
   3521    3520    3522 1       1.07730000e+02    2.99574400e+02
   3521    3520    3523 1       1.07730000e+02    2.99574400e+02
   3521    3520    3524 1       1.10530000e+02    3.60326080e+02
   3522    3520    3523 1       1.07730000e+02    2.99574400e+02
   3522    3520    3524 1       1.10530000e+02    3.60326080e+02
   3523    3520    3524 1       1.10530000e+02    3.60326080e+02
   3524    3525    3526 1       1.10530000e+02    3.60326080e+02
   3524    3525    3527 1       1.10530000e+02    3.60326080e+02
   3524    3525    3528 1       1.10530000e+02    3.60326080e+02
   3524    3529    3530 1       1.10210000e+02    5.31033280e+02
   3524    3529    3550 1       1.21870000e+02    5.06012960e+02
   3524    3553    3552 1       1.10210000e+02    5.31033280e+02
   3524    3553    3554 1       1.21870000e+02    5.06012960e+02
   3525    3524    3529 1       1.13070000e+02    5.03000480e+02
   3525    3524    3553 1       1.13070000e+02    5.03000480e+02
   3526    3525    3527 1       1.07730000e+02    2.99574400e+02
   3526    3525    3528 1       1.07730000e+02    2.99574400e+02
   3527    3525    3528 1       1.07730000e+02    2.99574400e+02
   3529    3524    3553 1       1.12520000e+02    5.08021280e+02
   3529    3530    3531 1       1.18410000e+02    5.33794720e+02
   3529    3530    3552 1       1.21100000e+02    5.12958400e+02
   3529    3550    3549 1       1.20020000e+02    5.32790560e+02
   3529    3550    3551 1       1.19880000e+02    3.75723200e+02
   3530    3529    3550 1       1.20730000e+02    5.29945440e+02
   3530    3531    3532 1       1.19820000e+02    3.74300640e+02
   3530    3531    3533 1       1.20730000e+02    5.29945440e+02
   3530    3552    3553 1       1.21100000e+02    5.12958400e+02
   3530    3552    3587 1       1.21100000e+02    5.12958400e+02
   3531    3530    3552 1       1.21100000e+02    5.12958400e+02
   3531    3533    3534 1       1.20640000e+02    5.08439680e+02
   3531    3533    3549 1       1.20020000e+02    5.32790560e+02
   3532    3531    3533 1       1.19880000e+02    3.75723200e+02
   3533    3534    3535 1       1.14530000e+02    3.58485120e+02
   3533    3534    3536 1       1.16810000e+02    4.91368960e+02
   3533    3534    3544 1       1.24830000e+02    4.77729120e+02
   3533    3549    3536 1       1.20640000e+02    5.08439680e+02
   3533    3549    3550 1       1.20020000e+02    5.32790560e+02
   3534    3533    3549 1       1.20640000e+02    5.08439680e+02
   3534    3536    3537 1       1.14760000e+02    3.49364000e+02
   3534    3536    3538 1       1.22490000e+02    4.75804480e+02
   3534    3536    3549 1       1.16810000e+02    4.91368960e+02
   3534    3544    3542 1       9.60300000e+01    5.40070720e+02
   3534    3544    3545 1       1.12000000e+02    3.56811520e+02
   3534    3544    3546 1       1.03090000e+02    5.20322240e+02
   3535    3534    3536 1       1.14760000e+02    3.49364000e+02
   3535    3534    3544 1       1.13690000e+02    3.54217440e+02
   3536    3534    3544 1       1.22490000e+02    4.75804480e+02
   3536    3538    3539 1       1.12000000e+02    3.56811520e+02
   3536    3538    3540 1       9.60300000e+01    5.40070720e+02
   3536    3538    3546 1       1.03090000e+02    5.20322240e+02
   3536    3549    3550 1       1.20640000e+02    5.08439680e+02
   3537    3536    3538 1       1.13690000e+02    3.54217440e+02
   3537    3536    3549 1       1.14530000e+02    3.58485120e+02
   3538    3536    3549 1       1.24830000e+02    4.77729120e+02
   3538    3540    2952 1       1.24830000e+02    4.77729120e+02
   3538    3540    3541 1       1.13690000e+02    3.54217440e+02
   3538    3540    3542 1       1.22490000e+02    4.75804480e+02
   3538    3546    3544 1       1.03830000e+02    5.17477120e+02
   3538    3546    3547 1       1.11170000e+02    3.56895200e+02
   3538    3546    3548 1       1.11170000e+02    3.56895200e+02
   3539    3538    3546 1       1.11170000e+02    3.56895200e+02
   3540    3538    3539 1       1.12000000e+02    3.56811520e+02
   3540    3542    3543 1       1.14760000e+02    3.49364000e+02
   3542    3540    3541 1       1.14760000e+02    3.49364000e+02
   3542    3544    3545 1       1.12000000e+02    3.56811520e+02
   3544    3542    2951 1       1.24830000e+02    4.77729120e+02
   3544    3542    3540 1       1.22490000e+02    4.75804480e+02
   3544    3542    3543 1       1.13690000e+02    3.54217440e+02
   3544    3546    3547 1       1.11170000e+02    3.56895200e+02
   3544    3546    3548 1       1.11170000e+02    3.56895200e+02
   3545    3544    3546 1       1.11170000e+02    3.56895200e+02
   3546    3538    3540 1       1.03090000e+02    5.20322240e+02
   3546    3544    3542 1       1.03090000e+02    5.20322240e+02
   3547    3546    3548 1       1.07220000e+02    3.00494880e+02
   3549    3550    3551 1       1.19880000e+02    3.75723200e+02
   3552    3553    3554 1       1.20730000e+02    5.29945440e+02
   3552    3587    3586 1       1.20730000e+02    5.29945440e+02
   3552    3587    3588 1       1.19820000e+02    3.74300640e+02
   3553    3552    3587 1       1.18410000e+02    5.33794720e+02
   3553    3554    3555 1       1.19880000e+02    3.75723200e+02
   3553    3554    3556 1       1.20020000e+02    5.32790560e+02
   3554    3556    3557 1       1.20640000e+02    5.08439680e+02
   3554    3556    3586 1       1.20020000e+02    5.32790560e+02
   3555    3554    3556 1       1.19880000e+02    3.75723200e+02
   3556    3557    3558 1       1.14530000e+02    3.58485120e+02
   3556    3557    3559 1       1.16810000e+02    4.91368960e+02
   3556    3557    3581 1       1.24830000e+02    4.77729120e+02
   3556    3586    3559 1       1.20640000e+02    5.08439680e+02
   3556    3586    3587 1       1.20020000e+02    5.32790560e+02
   3557    3556    3586 1       1.20640000e+02    5.08439680e+02
   3557    3559    3560 1       1.14760000e+02    3.49364000e+02
   3557    3559    3561 1       1.22490000e+02    4.75804480e+02
   3557    3559    3586 1       1.16810000e+02    4.91368960e+02
   3557    3581    3579 1       9.60300000e+01    5.40070720e+02
   3557    3581    3582 1       1.12000000e+02    3.56811520e+02
   3557    3581    3583 1       1.03090000e+02    5.20322240e+02
   3558    3557    3559 1       1.14760000e+02    3.49364000e+02
   3558    3557    3581 1       1.13690000e+02    3.54217440e+02
   3559    3557    3581 1       1.22490000e+02    4.75804480e+02
   3559    3561    3562 1       1.12000000e+02    3.56811520e+02
   3559    3561    3563 1       9.60300000e+01    5.40070720e+02
   3559    3561    3583 1       1.03090000e+02    5.20322240e+02
   3559    3586    3587 1       1.20640000e+02    5.08439680e+02
   3560    3559    3561 1       1.13690000e+02    3.54217440e+02
   3560    3559    3586 1       1.14530000e+02    3.58485120e+02
   3561    3559    3586 1       1.24830000e+02    4.77729120e+02
   3561    3563    3564 1       1.13690000e+02    3.54217440e+02
   3561    3563    3565 1       1.24830000e+02    4.77729120e+02
   3561    3563    3579 1       1.22490000e+02    4.75804480e+02
   3561    3583    3581 1       1.03830000e+02    5.17477120e+02
   3561    3583    3584 1       1.11170000e+02    3.56895200e+02
   3561    3583    3585 1       1.11170000e+02    3.56895200e+02
   3562    3561    3563 1       1.12000000e+02    3.56811520e+02
   3562    3561    3583 1       1.11170000e+02    3.56895200e+02
   3563    3561    3583 1       1.03090000e+02    5.20322240e+02
   3563    3565    3566 1       1.20640000e+02    5.08439680e+02
   3563    3565    3574 1       1.20640000e+02    5.08439680e+02
   3563    3579    3566 1       1.16810000e+02    4.91368960e+02
   3563    3579    3580 1       1.14760000e+02    3.49364000e+02
   3563    3579    3581 1       1.22490000e+02    4.75804480e+02
   3564    3563    3565 1       1.14530000e+02    3.58485120e+02
   3564    3563    3579 1       1.14760000e+02    3.49364000e+02
   3565    3563    3579 1       1.16810000e+02    4.91368960e+02
   3565    3566    3567 1       1.20020000e+02    5.32790560e+02
   3565    3566    3579 1       1.20640000e+02    5.08439680e+02
   3565    3574    3573 1       1.20020000e+02    5.32790560e+02
   3565    3574    3575 1       1.20830000e+02    5.08272320e+02
   3566    3565    3574 1       1.20020000e+02    5.32790560e+02
   3566    3567    3568 1       1.20830000e+02    5.08272320e+02
   3566    3567    3572 1       1.20020000e+02    5.32790560e+02
   3566    3579    3580 1       1.14530000e+02    3.58485120e+02
   3566    3579    3581 1       1.24830000e+02    4.77729120e+02
   3567    3566    3579 1       1.20640000e+02    5.08439680e+02
   3567    3568    3569 1       1.10630000e+02    3.64928480e+02
   3567    3568    3570 1       1.10630000e+02    3.64928480e+02
   3567    3568    3571 1       1.10630000e+02    3.64928480e+02
   3567    3572    3573 1       1.20020000e+02    5.32790560e+02
   3567    3572    6578 1       1.20640000e+02    5.08439680e+02
   3568    3567    3572 1       1.20830000e+02    5.08272320e+02
   3569    3568    3570 1       1.07730000e+02    2.99574400e+02
   3569    3568    3571 1       1.07730000e+02    2.99574400e+02
   3570    3568    3571 1       1.07730000e+02    2.99574400e+02
   3572    3573    3574 1       1.20020000e+02    5.32790560e+02
   3572    3573    6576 1       1.20640000e+02    5.08439680e+02
   3572    6578    6576 1       1.16810000e+02    4.91368960e+02
   3572    6578    6579 1       1.14530000e+02    3.58485120e+02
   3573    3572    6578 1       1.20640000e+02    5.08439680e+02
   3573    6576    6577 1       1.14530000e+02    3.58485120e+02
   3573    6576    6578 1       1.16810000e+02    4.91368960e+02
   3574    3573    6576 1       1.20640000e+02    5.08439680e+02
   3574    3575    3576 1       1.10630000e+02    3.64928480e+02
   3574    3575    3577 1       1.10630000e+02    3.64928480e+02
   3574    3575    3578 1       1.10630000e+02    3.64928480e+02
   3575    3574    3573 1       1.20830000e+02    5.08272320e+02
   3576    3575    3577 1       1.07730000e+02    2.99574400e+02
   3576    3575    3578 1       1.07730000e+02    2.99574400e+02
   3577    3575    3578 1       1.07730000e+02    2.99574400e+02
   3579    3581    3582 1       1.12000000e+02    3.56811520e+02
   3579    3581    3583 1       1.03090000e+02    5.20322240e+02
   3580    3579    3581 1       1.13690000e+02    3.54217440e+02
   3581    3583    3584 1       1.11170000e+02    3.56895200e+02
   3581    3583    3585 1       1.11170000e+02    3.56895200e+02
   3582    3581    3583 1       1.11170000e+02    3.56895200e+02
   3584    3583    3585 1       1.07220000e+02    3.00494880e+02
   3586    3587    3588 1       1.19880000e+02    3.75723200e+02
   3589    3593    3594 1       1.10280000e+02    5.05761920e+02
   3589    3593    3598 1       1.13070000e+02    5.03000480e+02
   3589    3593    3622 1       1.13070000e+02    5.03000480e+02
   3590    3589    3591 1       1.07730000e+02    2.99574400e+02
   3590    3589    3592 1       1.07730000e+02    2.99574400e+02
   3590    3589    3593 1       1.10530000e+02    3.60326080e+02
   3591    3589    3592 1       1.07730000e+02    2.99574400e+02
   3591    3589    3593 1       1.10530000e+02    3.60326080e+02
   3592    3589    3593 1       1.10530000e+02    3.60326080e+02
   3593    3594    3595 1       1.10530000e+02    3.60326080e+02
   3593    3594    3596 1       1.10530000e+02    3.60326080e+02
   3593    3594    3597 1       1.10530000e+02    3.60326080e+02
   3593    3598    3599 1       1.10210000e+02    5.31033280e+02
   3593    3598    3619 1       1.21870000e+02    5.06012960e+02
   3593    3622    3621 1       1.10210000e+02    5.31033280e+02
   3593    3622    3623 1       1.21870000e+02    5.06012960e+02
   3594    3593    3598 1       1.13070000e+02    5.03000480e+02
   3594    3593    3622 1       1.13070000e+02    5.03000480e+02
   3595    3594    3596 1       1.07730000e+02    2.99574400e+02
   3595    3594    3597 1       1.07730000e+02    2.99574400e+02
   3596    3594    3597 1       1.07730000e+02    2.99574400e+02
   3598    3593    3622 1       1.12520000e+02    5.08021280e+02
   3598    3599    3600 1       1.18410000e+02    5.33794720e+02
   3598    3599    3621 1       1.21100000e+02    5.12958400e+02
   3598    3619    3618 1       1.20020000e+02    5.32790560e+02
   3598    3619    3620 1       1.19880000e+02    3.75723200e+02
   3599    3598    3619 1       1.20730000e+02    5.29945440e+02
   3599    3600    3601 1       1.19820000e+02    3.74300640e+02
   3599    3600    3602 1       1.20730000e+02    5.29945440e+02
   3599    3621    3622 1       1.21100000e+02    5.12958400e+02
   3599    3621    3656 1       1.21100000e+02    5.12958400e+02
   3600    3599    3621 1       1.21100000e+02    5.12958400e+02
   3600    3602    3603 1       1.20640000e+02    5.08439680e+02
   3600    3602    3618 1       1.20020000e+02    5.32790560e+02
   3601    3600    3602 1       1.19880000e+02    3.75723200e+02
   3602    3603    3604 1       1.14530000e+02    3.58485120e+02
   3602    3603    3605 1       1.16810000e+02    4.91368960e+02
   3602    3603    3613 1       1.24830000e+02    4.77729120e+02
   3602    3618    3605 1       1.20640000e+02    5.08439680e+02
   3602    3618    3619 1       1.20020000e+02    5.32790560e+02
   3603    3602    3618 1       1.20640000e+02    5.08439680e+02
   3603    3605    3606 1       1.14760000e+02    3.49364000e+02
   3603    3605    3607 1       1.22490000e+02    4.75804480e+02
   3603    3605    3618 1       1.16810000e+02    4.91368960e+02
   3603    3613    3611 1       9.60300000e+01    5.40070720e+02
   3603    3613    3614 1       1.12000000e+02    3.56811520e+02
   3603    3613    3615 1       1.03090000e+02    5.20322240e+02
   3604    3603    3605 1       1.14760000e+02    3.49364000e+02
   3604    3603    3613 1       1.13690000e+02    3.54217440e+02
   3605    3603    3613 1       1.22490000e+02    4.75804480e+02
   3605    3607    3608 1       1.12000000e+02    3.56811520e+02
   3605    3607    3609 1       9.60300000e+01    5.40070720e+02
   3605    3607    3615 1       1.03090000e+02    5.20322240e+02
   3605    3618    3619 1       1.20640000e+02    5.08439680e+02
   3606    3605    3607 1       1.13690000e+02    3.54217440e+02
   3606    3605    3618 1       1.14530000e+02    3.58485120e+02
   3607    3605    3618 1       1.24830000e+02    4.77729120e+02
   3607    3609    3435 1       1.24830000e+02    4.77729120e+02
   3607    3609    3610 1       1.13690000e+02    3.54217440e+02
   3607    3609    3611 1       1.22490000e+02    4.75804480e+02
   3607    3615    3613 1       1.03830000e+02    5.17477120e+02
   3607    3615    3616 1       1.11170000e+02    3.56895200e+02
   3607    3615    3617 1       1.11170000e+02    3.56895200e+02
   3608    3607    3615 1       1.11170000e+02    3.56895200e+02
   3609    3607    3608 1       1.12000000e+02    3.56811520e+02
   3609    3611    3612 1       1.14760000e+02    3.49364000e+02
   3611    3609    3610 1       1.14760000e+02    3.49364000e+02
   3611    3613    3614 1       1.12000000e+02    3.56811520e+02
   3613    3611    3434 1       1.24830000e+02    4.77729120e+02
   3613    3611    3609 1       1.22490000e+02    4.75804480e+02
   3613    3611    3612 1       1.13690000e+02    3.54217440e+02
   3613    3615    3616 1       1.11170000e+02    3.56895200e+02
   3613    3615    3617 1       1.11170000e+02    3.56895200e+02
   3614    3613    3615 1       1.11170000e+02    3.56895200e+02
   3615    3607    3609 1       1.03090000e+02    5.20322240e+02
   3615    3613    3611 1       1.03090000e+02    5.20322240e+02
   3616    3615    3617 1       1.07220000e+02    3.00494880e+02
   3618    3619    3620 1       1.19880000e+02    3.75723200e+02
   3621    3622    3623 1       1.20730000e+02    5.29945440e+02
   3621    3656    3655 1       1.20730000e+02    5.29945440e+02
   3621    3656    3657 1       1.19820000e+02    3.74300640e+02
   3622    3621    3656 1       1.18410000e+02    5.33794720e+02
   3622    3623    3624 1       1.19880000e+02    3.75723200e+02
   3622    3623    3625 1       1.20020000e+02    5.32790560e+02
   3623    3625    3626 1       1.20640000e+02    5.08439680e+02
   3623    3625    3655 1       1.20020000e+02    5.32790560e+02
   3624    3623    3625 1       1.19880000e+02    3.75723200e+02
   3625    3626    3627 1       1.14530000e+02    3.58485120e+02
   3625    3626    3628 1       1.16810000e+02    4.91368960e+02
   3625    3626    3650 1       1.24830000e+02    4.77729120e+02
   3625    3655    3628 1       1.20640000e+02    5.08439680e+02
   3625    3655    3656 1       1.20020000e+02    5.32790560e+02
   3626    3625    3655 1       1.20640000e+02    5.08439680e+02
   3626    3628    3629 1       1.14760000e+02    3.49364000e+02
   3626    3628    3630 1       1.22490000e+02    4.75804480e+02
   3626    3628    3655 1       1.16810000e+02    4.91368960e+02
   3626    3650    3648 1       9.60300000e+01    5.40070720e+02
   3626    3650    3651 1       1.12000000e+02    3.56811520e+02
   3626    3650    3652 1       1.03090000e+02    5.20322240e+02
   3627    3626    3628 1       1.14760000e+02    3.49364000e+02
   3627    3626    3650 1       1.13690000e+02    3.54217440e+02
   3628    3626    3650 1       1.22490000e+02    4.75804480e+02
   3628    3630    3631 1       1.12000000e+02    3.56811520e+02
   3628    3630    3632 1       9.60300000e+01    5.40070720e+02
   3628    3630    3652 1       1.03090000e+02    5.20322240e+02
   3628    3655    3656 1       1.20640000e+02    5.08439680e+02
   3629    3628    3630 1       1.13690000e+02    3.54217440e+02
   3629    3628    3655 1       1.14530000e+02    3.58485120e+02
   3630    3628    3655 1       1.24830000e+02    4.77729120e+02
   3630    3632    3633 1       1.13690000e+02    3.54217440e+02
   3630    3632    3634 1       1.24830000e+02    4.77729120e+02
   3630    3632    3648 1       1.22490000e+02    4.75804480e+02
   3630    3652    3650 1       1.03830000e+02    5.17477120e+02
   3630    3652    3653 1       1.11170000e+02    3.56895200e+02
   3630    3652    3654 1       1.11170000e+02    3.56895200e+02
   3631    3630    3632 1       1.12000000e+02    3.56811520e+02
   3631    3630    3652 1       1.11170000e+02    3.56895200e+02
   3632    3630    3652 1       1.03090000e+02    5.20322240e+02
   3632    3634    3635 1       1.20640000e+02    5.08439680e+02
   3632    3634    3643 1       1.20640000e+02    5.08439680e+02
   3632    3648    3635 1       1.16810000e+02    4.91368960e+02
   3632    3648    3649 1       1.14760000e+02    3.49364000e+02
   3632    3648    3650 1       1.22490000e+02    4.75804480e+02
   3633    3632    3634 1       1.14530000e+02    3.58485120e+02
   3633    3632    3648 1       1.14760000e+02    3.49364000e+02
   3634    3632    3648 1       1.16810000e+02    4.91368960e+02
   3634    3635    3636 1       1.20020000e+02    5.32790560e+02
   3634    3635    3648 1       1.20640000e+02    5.08439680e+02
   3634    3643    3642 1       1.20020000e+02    5.32790560e+02
   3634    3643    3644 1       1.20830000e+02    5.08272320e+02
   3635    3634    3643 1       1.20020000e+02    5.32790560e+02
   3635    3636    3637 1       1.20830000e+02    5.08272320e+02
   3635    3636    3641 1       1.20020000e+02    5.32790560e+02
   3635    3648    3649 1       1.14530000e+02    3.58485120e+02
   3635    3648    3650 1       1.24830000e+02    4.77729120e+02
   3636    3635    3648 1       1.20640000e+02    5.08439680e+02
   3636    3637    3638 1       1.10630000e+02    3.64928480e+02
   3636    3637    3639 1       1.10630000e+02    3.64928480e+02
   3636    3637    3640 1       1.10630000e+02    3.64928480e+02
   3636    3641    2160 1       1.20640000e+02    5.08439680e+02
   3636    3641    3642 1       1.20020000e+02    5.32790560e+02
   3637    3636    3641 1       1.20830000e+02    5.08272320e+02
   3638    3637    3639 1       1.07730000e+02    2.99574400e+02
   3638    3637    3640 1       1.07730000e+02    2.99574400e+02
   3639    3637    3640 1       1.07730000e+02    2.99574400e+02
   3641    2160    2161 1       1.14530000e+02    3.58485120e+02
   3641    2160    2162 1       1.16810000e+02    4.91368960e+02
   3641    3642    2162 1       1.20640000e+02    5.08439680e+02
   3641    3642    3643 1       1.20020000e+02    5.32790560e+02
   3642    2162    2160 1       1.16810000e+02    4.91368960e+02
   3642    2162    2163 1       1.14530000e+02    3.58485120e+02
   3642    3641    2160 1       1.20640000e+02    5.08439680e+02
   3643    3642    2162 1       1.20640000e+02    5.08439680e+02
   3643    3644    3645 1       1.10630000e+02    3.64928480e+02
   3643    3644    3646 1       1.10630000e+02    3.64928480e+02
   3643    3644    3647 1       1.10630000e+02    3.64928480e+02
   3644    3643    3642 1       1.20830000e+02    5.08272320e+02
   3645    3644    3646 1       1.07730000e+02    2.99574400e+02
   3645    3644    3647 1       1.07730000e+02    2.99574400e+02
   3646    3644    3647 1       1.07730000e+02    2.99574400e+02
   3648    3650    3651 1       1.12000000e+02    3.56811520e+02
   3648    3650    3652 1       1.03090000e+02    5.20322240e+02
   3649    3648    3650 1       1.13690000e+02    3.54217440e+02
   3650    3652    3653 1       1.11170000e+02    3.56895200e+02
   3650    3652    3654 1       1.11170000e+02    3.56895200e+02
   3651    3650    3652 1       1.11170000e+02    3.56895200e+02
   3653    3652    3654 1       1.07220000e+02    3.00494880e+02
   3655    3656    3657 1       1.19880000e+02    3.75723200e+02
   3658    3662    3663 1       1.10280000e+02    5.05761920e+02
   3658    3662    3667 1       1.13070000e+02    5.03000480e+02
   3658    3662    3691 1       1.13070000e+02    5.03000480e+02
   3659    3658    3660 1       1.07730000e+02    2.99574400e+02
   3659    3658    3661 1       1.07730000e+02    2.99574400e+02
   3659    3658    3662 1       1.10530000e+02    3.60326080e+02
   3660    3658    3661 1       1.07730000e+02    2.99574400e+02
   3660    3658    3662 1       1.10530000e+02    3.60326080e+02
   3661    3658    3662 1       1.10530000e+02    3.60326080e+02
   3662    3663    3664 1       1.10530000e+02    3.60326080e+02
   3662    3663    3665 1       1.10530000e+02    3.60326080e+02
   3662    3663    3666 1       1.10530000e+02    3.60326080e+02
   3662    3667    3668 1       1.10210000e+02    5.31033280e+02
   3662    3667    3688 1       1.21870000e+02    5.06012960e+02
   3662    3691    3690 1       1.10210000e+02    5.31033280e+02
   3662    3691    3692 1       1.21870000e+02    5.06012960e+02
   3663    3662    3667 1       1.13070000e+02    5.03000480e+02
   3663    3662    3691 1       1.13070000e+02    5.03000480e+02
   3664    3663    3665 1       1.07730000e+02    2.99574400e+02
   3664    3663    3666 1       1.07730000e+02    2.99574400e+02
   3665    3663    3666 1       1.07730000e+02    2.99574400e+02
   3667    3662    3691 1       1.12520000e+02    5.08021280e+02
   3667    3668    3669 1       1.18410000e+02    5.33794720e+02
   3667    3668    3690 1       1.21100000e+02    5.12958400e+02
   3667    3688    3687 1       1.20020000e+02    5.32790560e+02
   3667    3688    3689 1       1.19880000e+02    3.75723200e+02
   3668    3667    3688 1       1.20730000e+02    5.29945440e+02
   3668    3669    3670 1       1.19820000e+02    3.74300640e+02
   3668    3669    3671 1       1.20730000e+02    5.29945440e+02
   3668    3690    3691 1       1.21100000e+02    5.12958400e+02
   3668    3690    3725 1       1.21100000e+02    5.12958400e+02
   3669    3668    3690 1       1.21100000e+02    5.12958400e+02
   3669    3671    3672 1       1.20640000e+02    5.08439680e+02
   3669    3671    3687 1       1.20020000e+02    5.32790560e+02
   3670    3669    3671 1       1.19880000e+02    3.75723200e+02
   3671    3672    3673 1       1.14530000e+02    3.58485120e+02
   3671    3672    3674 1       1.16810000e+02    4.91368960e+02
   3671    3672    3682 1       1.24830000e+02    4.77729120e+02
   3671    3687    3674 1       1.20640000e+02    5.08439680e+02
   3671    3687    3688 1       1.20020000e+02    5.32790560e+02
   3672    3671    3687 1       1.20640000e+02    5.08439680e+02
   3672    3674    3675 1       1.14760000e+02    3.49364000e+02
   3672    3674    3676 1       1.22490000e+02    4.75804480e+02
   3672    3674    3687 1       1.16810000e+02    4.91368960e+02
   3672    3682    3680 1       9.60300000e+01    5.40070720e+02
   3672    3682    3683 1       1.12000000e+02    3.56811520e+02
   3672    3682    3684 1       1.03090000e+02    5.20322240e+02
   3673    3672    3674 1       1.14760000e+02    3.49364000e+02
   3673    3672    3682 1       1.13690000e+02    3.54217440e+02
   3674    3672    3682 1       1.22490000e+02    4.75804480e+02
   3674    3676    3677 1       1.12000000e+02    3.56811520e+02
   3674    3676    3678 1       9.60300000e+01    5.40070720e+02
   3674    3676    3684 1       1.03090000e+02    5.20322240e+02
   3674    3687    3688 1       1.20640000e+02    5.08439680e+02
   3675    3674    3676 1       1.13690000e+02    3.54217440e+02
   3675    3674    3687 1       1.14530000e+02    3.58485120e+02
   3676    3674    3687 1       1.24830000e+02    4.77729120e+02
   3676    3678    3679 1       1.13690000e+02    3.54217440e+02
   3676    3678    3680 1       1.22490000e+02    4.75804480e+02
   3676    3678    5435 1       1.24830000e+02    4.77729120e+02
   3676    3684    3682 1       1.03830000e+02    5.17477120e+02
   3676    3684    3685 1       1.11170000e+02    3.56895200e+02
   3676    3684    3686 1       1.11170000e+02    3.56895200e+02
   3677    3676    3684 1       1.11170000e+02    3.56895200e+02
   3678    3676    3677 1       1.12000000e+02    3.56811520e+02
   3678    3680    3681 1       1.14760000e+02    3.49364000e+02
   3680    3678    3679 1       1.14760000e+02    3.49364000e+02
   3680    3682    3683 1       1.12000000e+02    3.56811520e+02
   3682    3680    3678 1       1.22490000e+02    4.75804480e+02
   3682    3680    3681 1       1.13690000e+02    3.54217440e+02
   3682    3680    5436 1       1.24830000e+02    4.77729120e+02
   3682    3684    3685 1       1.11170000e+02    3.56895200e+02
   3682    3684    3686 1       1.11170000e+02    3.56895200e+02
   3683    3682    3684 1       1.11170000e+02    3.56895200e+02
   3684    3676    3678 1       1.03090000e+02    5.20322240e+02
   3684    3682    3680 1       1.03090000e+02    5.20322240e+02
   3685    3684    3686 1       1.07220000e+02    3.00494880e+02
   3687    3688    3689 1       1.19880000e+02    3.75723200e+02
   3690    3691    3692 1       1.20730000e+02    5.29945440e+02
   3690    3725    3724 1       1.20730000e+02    5.29945440e+02
   3690    3725    3726 1       1.19820000e+02    3.74300640e+02
   3691    3690    3725 1       1.18410000e+02    5.33794720e+02
   3691    3692    3693 1       1.19880000e+02    3.75723200e+02
   3691    3692    3694 1       1.20020000e+02    5.32790560e+02
   3692    3694    3695 1       1.20640000e+02    5.08439680e+02
   3692    3694    3724 1       1.20020000e+02    5.32790560e+02
   3693    3692    3694 1       1.19880000e+02    3.75723200e+02
   3694    3695    3696 1       1.14530000e+02    3.58485120e+02
   3694    3695    3697 1       1.16810000e+02    4.91368960e+02
   3694    3695    3719 1       1.24830000e+02    4.77729120e+02
   3694    3724    3697 1       1.20640000e+02    5.08439680e+02
   3694    3724    3725 1       1.20020000e+02    5.32790560e+02
   3695    3694    3724 1       1.20640000e+02    5.08439680e+02
   3695    3697    3698 1       1.14760000e+02    3.49364000e+02
   3695    3697    3699 1       1.22490000e+02    4.75804480e+02
   3695    3697    3724 1       1.16810000e+02    4.91368960e+02
   3695    3719    3717 1       9.60300000e+01    5.40070720e+02
   3695    3719    3720 1       1.12000000e+02    3.56811520e+02
   3695    3719    3721 1       1.03090000e+02    5.20322240e+02
   3696    3695    3697 1       1.14760000e+02    3.49364000e+02
   3696    3695    3719 1       1.13690000e+02    3.54217440e+02
   3697    3695    3719 1       1.22490000e+02    4.75804480e+02
   3697    3699    3700 1       1.12000000e+02    3.56811520e+02
   3697    3699    3701 1       9.60300000e+01    5.40070720e+02
   3697    3699    3721 1       1.03090000e+02    5.20322240e+02
   3697    3724    3725 1       1.20640000e+02    5.08439680e+02
   3698    3697    3699 1       1.13690000e+02    3.54217440e+02
   3698    3697    3724 1       1.14530000e+02    3.58485120e+02
   3699    3697    3724 1       1.24830000e+02    4.77729120e+02
   3699    3701    3702 1       1.13690000e+02    3.54217440e+02
   3699    3701    3703 1       1.24830000e+02    4.77729120e+02
   3699    3701    3717 1       1.22490000e+02    4.75804480e+02
   3699    3721    3719 1       1.03830000e+02    5.17477120e+02
   3699    3721    3722 1       1.11170000e+02    3.56895200e+02
   3699    3721    3723 1       1.11170000e+02    3.56895200e+02
   3700    3699    3701 1       1.12000000e+02    3.56811520e+02
   3700    3699    3721 1       1.11170000e+02    3.56895200e+02
   3701    3699    3721 1       1.03090000e+02    5.20322240e+02
   3701    3703    3704 1       1.20640000e+02    5.08439680e+02
   3701    3703    3712 1       1.20640000e+02    5.08439680e+02
   3701    3717    3704 1       1.16810000e+02    4.91368960e+02
   3701    3717    3718 1       1.14760000e+02    3.49364000e+02
   3701    3717    3719 1       1.22490000e+02    4.75804480e+02
   3702    3701    3703 1       1.14530000e+02    3.58485120e+02
   3702    3701    3717 1       1.14760000e+02    3.49364000e+02
   3703    3701    3717 1       1.16810000e+02    4.91368960e+02
   3703    3704    3705 1       1.20020000e+02    5.32790560e+02
   3703    3704    3717 1       1.20640000e+02    5.08439680e+02
   3703    3712    3711 1       1.20020000e+02    5.32790560e+02
   3703    3712    3713 1       1.20830000e+02    5.08272320e+02
   3704    3703    3712 1       1.20020000e+02    5.32790560e+02
   3704    3705    3706 1       1.20830000e+02    5.08272320e+02
   3704    3705    3710 1       1.20020000e+02    5.32790560e+02
   3704    3717    3718 1       1.14530000e+02    3.58485120e+02
   3704    3717    3719 1       1.24830000e+02    4.77729120e+02
   3705    3704    3717 1       1.20640000e+02    5.08439680e+02
   3705    3706    3707 1       1.10630000e+02    3.64928480e+02
   3705    3706    3708 1       1.10630000e+02    3.64928480e+02
   3705    3706    3709 1       1.10630000e+02    3.64928480e+02
   3705    3710    3711 1       1.20020000e+02    5.32790560e+02
   3705    3710    5474 1       1.20640000e+02    5.08439680e+02
   3706    3705    3710 1       1.20830000e+02    5.08272320e+02
   3707    3706    3708 1       1.07730000e+02    2.99574400e+02
   3707    3706    3709 1       1.07730000e+02    2.99574400e+02
   3708    3706    3709 1       1.07730000e+02    2.99574400e+02
   3710    3711    3712 1       1.20020000e+02    5.32790560e+02
   3710    3711    5472 1       1.20640000e+02    5.08439680e+02
   3710    5474    5472 1       1.16810000e+02    4.91368960e+02
   3710    5474    5475 1       1.14530000e+02    3.58485120e+02
   3711    3710    5474 1       1.20640000e+02    5.08439680e+02
   3711    5472    5473 1       1.14530000e+02    3.58485120e+02
   3711    5472    5474 1       1.16810000e+02    4.91368960e+02
   3712    3711    5472 1       1.20640000e+02    5.08439680e+02
   3712    3713    3714 1       1.10630000e+02    3.64928480e+02
   3712    3713    3715 1       1.10630000e+02    3.64928480e+02
   3712    3713    3716 1       1.10630000e+02    3.64928480e+02
   3713    3712    3711 1       1.20830000e+02    5.08272320e+02
   3714    3713    3715 1       1.07730000e+02    2.99574400e+02
   3714    3713    3716 1       1.07730000e+02    2.99574400e+02
   3715    3713    3716 1       1.07730000e+02    2.99574400e+02
   3717    3719    3720 1       1.12000000e+02    3.56811520e+02
   3717    3719    3721 1       1.03090000e+02    5.20322240e+02
   3718    3717    3719 1       1.13690000e+02    3.54217440e+02
   3719    3721    3722 1       1.11170000e+02    3.56895200e+02
   3719    3721    3723 1       1.11170000e+02    3.56895200e+02
   3720    3719    3721 1       1.11170000e+02    3.56895200e+02
   3722    3721    3723 1       1.07220000e+02    3.00494880e+02
   3724    3725    3726 1       1.19880000e+02    3.75723200e+02
   3727    3731    3732 1       1.10280000e+02    5.05761920e+02
   3727    3731    3736 1       1.13070000e+02    5.03000480e+02
   3727    3731    3760 1       1.13070000e+02    5.03000480e+02
   3728    3727    3729 1       1.07730000e+02    2.99574400e+02
   3728    3727    3730 1       1.07730000e+02    2.99574400e+02
   3728    3727    3731 1       1.10530000e+02    3.60326080e+02
   3729    3727    3730 1       1.07730000e+02    2.99574400e+02
   3729    3727    3731 1       1.10530000e+02    3.60326080e+02
   3730    3727    3731 1       1.10530000e+02    3.60326080e+02
   3731    3732    3733 1       1.10530000e+02    3.60326080e+02
   3731    3732    3734 1       1.10530000e+02    3.60326080e+02
   3731    3732    3735 1       1.10530000e+02    3.60326080e+02
   3731    3736    3737 1       1.10210000e+02    5.31033280e+02
   3731    3736    3757 1       1.21870000e+02    5.06012960e+02
   3731    3760    3759 1       1.10210000e+02    5.31033280e+02
   3731    3760    3761 1       1.21870000e+02    5.06012960e+02
   3732    3731    3736 1       1.13070000e+02    5.03000480e+02
   3732    3731    3760 1       1.13070000e+02    5.03000480e+02
   3733    3732    3734 1       1.07730000e+02    2.99574400e+02
   3733    3732    3735 1       1.07730000e+02    2.99574400e+02
   3734    3732    3735 1       1.07730000e+02    2.99574400e+02
   3736    3731    3760 1       1.12520000e+02    5.08021280e+02
   3736    3737    3738 1       1.18410000e+02    5.33794720e+02
   3736    3737    3759 1       1.21100000e+02    5.12958400e+02
   3736    3757    3756 1       1.20020000e+02    5.32790560e+02
   3736    3757    3758 1       1.19880000e+02    3.75723200e+02
   3737    3736    3757 1       1.20730000e+02    5.29945440e+02
   3737    3738    3739 1       1.19820000e+02    3.74300640e+02
   3737    3738    3740 1       1.20730000e+02    5.29945440e+02
   3737    3759    3760 1       1.21100000e+02    5.12958400e+02
   3737    3759    3794 1       1.21100000e+02    5.12958400e+02
   3738    3737    3759 1       1.21100000e+02    5.12958400e+02
   3738    3740    3741 1       1.20640000e+02    5.08439680e+02
   3738    3740    3756 1       1.20020000e+02    5.32790560e+02
   3739    3738    3740 1       1.19880000e+02    3.75723200e+02
   3740    3741    3742 1       1.14530000e+02    3.58485120e+02
   3740    3741    3743 1       1.16810000e+02    4.91368960e+02
   3740    3741    3751 1       1.24830000e+02    4.77729120e+02
   3740    3756    3743 1       1.20640000e+02    5.08439680e+02
   3740    3756    3757 1       1.20020000e+02    5.32790560e+02
   3741    3740    3756 1       1.20640000e+02    5.08439680e+02
   3741    3743    3744 1       1.14760000e+02    3.49364000e+02
   3741    3743    3745 1       1.22490000e+02    4.75804480e+02
   3741    3743    3756 1       1.16810000e+02    4.91368960e+02
   3741    3751    3749 1       9.60300000e+01    5.40070720e+02
   3741    3751    3752 1       1.12000000e+02    3.56811520e+02
   3741    3751    3753 1       1.03090000e+02    5.20322240e+02
   3742    3741    3743 1       1.14760000e+02    3.49364000e+02
   3742    3741    3751 1       1.13690000e+02    3.54217440e+02
   3743    3741    3751 1       1.22490000e+02    4.75804480e+02
   3743    3745    3746 1       1.12000000e+02    3.56811520e+02
   3743    3745    3747 1       9.60300000e+01    5.40070720e+02
   3743    3745    3753 1       1.03090000e+02    5.20322240e+02
   3743    3756    3757 1       1.20640000e+02    5.08439680e+02
   3744    3743    3745 1       1.13690000e+02    3.54217440e+02
   3744    3743    3756 1       1.14530000e+02    3.58485120e+02
   3745    3743    3756 1       1.24830000e+02    4.77729120e+02
   3745    3747    2054 1       1.24830000e+02    4.77729120e+02
   3745    3747    3748 1       1.13690000e+02    3.54217440e+02
   3745    3747    3749 1       1.22490000e+02    4.75804480e+02
   3745    3753    3751 1       1.03830000e+02    5.17477120e+02
   3745    3753    3754 1       1.11170000e+02    3.56895200e+02
   3745    3753    3755 1       1.11170000e+02    3.56895200e+02
   3746    3745    3753 1       1.11170000e+02    3.56895200e+02
   3747    3745    3746 1       1.12000000e+02    3.56811520e+02
   3747    3749    3750 1       1.14760000e+02    3.49364000e+02
   3749    3747    3748 1       1.14760000e+02    3.49364000e+02
   3749    3751    3752 1       1.12000000e+02    3.56811520e+02
   3751    3749    2055 1       1.24830000e+02    4.77729120e+02
   3751    3749    3747 1       1.22490000e+02    4.75804480e+02
   3751    3749    3750 1       1.13690000e+02    3.54217440e+02
   3751    3753    3754 1       1.11170000e+02    3.56895200e+02
   3751    3753    3755 1       1.11170000e+02    3.56895200e+02
   3752    3751    3753 1       1.11170000e+02    3.56895200e+02
   3753    3745    3747 1       1.03090000e+02    5.20322240e+02
   3753    3751    3749 1       1.03090000e+02    5.20322240e+02
   3754    3753    3755 1       1.07220000e+02    3.00494880e+02
   3756    3757    3758 1       1.19880000e+02    3.75723200e+02
   3759    3760    3761 1       1.20730000e+02    5.29945440e+02
   3759    3794    3793 1       1.20730000e+02    5.29945440e+02
   3759    3794    3795 1       1.19820000e+02    3.74300640e+02
   3760    3759    3794 1       1.18410000e+02    5.33794720e+02
   3760    3761    3762 1       1.19880000e+02    3.75723200e+02
   3760    3761    3763 1       1.20020000e+02    5.32790560e+02
   3761    3763    3764 1       1.20640000e+02    5.08439680e+02
   3761    3763    3793 1       1.20020000e+02    5.32790560e+02
   3762    3761    3763 1       1.19880000e+02    3.75723200e+02
   3763    3764    3765 1       1.14530000e+02    3.58485120e+02
   3763    3764    3766 1       1.16810000e+02    4.91368960e+02
   3763    3764    3788 1       1.24830000e+02    4.77729120e+02
   3763    3793    3766 1       1.20640000e+02    5.08439680e+02
   3763    3793    3794 1       1.20020000e+02    5.32790560e+02
   3764    3763    3793 1       1.20640000e+02    5.08439680e+02
   3764    3766    3767 1       1.14760000e+02    3.49364000e+02
   3764    3766    3768 1       1.22490000e+02    4.75804480e+02
   3764    3766    3793 1       1.16810000e+02    4.91368960e+02
   3764    3788    3786 1       9.60300000e+01    5.40070720e+02
   3764    3788    3789 1       1.12000000e+02    3.56811520e+02
   3764    3788    3790 1       1.03090000e+02    5.20322240e+02
   3765    3764    3766 1       1.14760000e+02    3.49364000e+02
   3765    3764    3788 1       1.13690000e+02    3.54217440e+02
   3766    3764    3788 1       1.22490000e+02    4.75804480e+02
   3766    3768    3769 1       1.12000000e+02    3.56811520e+02
   3766    3768    3770 1       9.60300000e+01    5.40070720e+02
   3766    3768    3790 1       1.03090000e+02    5.20322240e+02
   3766    3793    3794 1       1.20640000e+02    5.08439680e+02
   3767    3766    3768 1       1.13690000e+02    3.54217440e+02
   3767    3766    3793 1       1.14530000e+02    3.58485120e+02
   3768    3766    3793 1       1.24830000e+02    4.77729120e+02
   3768    3770    3771 1       1.13690000e+02    3.54217440e+02
   3768    3770    3772 1       1.24830000e+02    4.77729120e+02
   3768    3770    3786 1       1.22490000e+02    4.75804480e+02
   3768    3790    3788 1       1.03830000e+02    5.17477120e+02
   3768    3790    3791 1       1.11170000e+02    3.56895200e+02
   3768    3790    3792 1       1.11170000e+02    3.56895200e+02
   3769    3768    3770 1       1.12000000e+02    3.56811520e+02
   3769    3768    3790 1       1.11170000e+02    3.56895200e+02
   3770    3768    3790 1       1.03090000e+02    5.20322240e+02
   3770    3772    3773 1       1.20640000e+02    5.08439680e+02
   3770    3772    3781 1       1.20640000e+02    5.08439680e+02
   3770    3786    3773 1       1.16810000e+02    4.91368960e+02
   3770    3786    3787 1       1.14760000e+02    3.49364000e+02
   3770    3786    3788 1       1.22490000e+02    4.75804480e+02
   3771    3770    3772 1       1.14530000e+02    3.58485120e+02
   3771    3770    3786 1       1.14760000e+02    3.49364000e+02
   3772    3770    3786 1       1.16810000e+02    4.91368960e+02
   3772    3773    3774 1       1.20020000e+02    5.32790560e+02
   3772    3773    3786 1       1.20640000e+02    5.08439680e+02
   3772    3781    3780 1       1.20020000e+02    5.32790560e+02
   3772    3781    3782 1       1.20830000e+02    5.08272320e+02
   3773    3772    3781 1       1.20020000e+02    5.32790560e+02
   3773    3774    3775 1       1.20830000e+02    5.08272320e+02
   3773    3774    3779 1       1.20020000e+02    5.32790560e+02
   3773    3786    3787 1       1.14530000e+02    3.58485120e+02
   3773    3786    3788 1       1.24830000e+02    4.77729120e+02
   3774    3773    3786 1       1.20640000e+02    5.08439680e+02
   3774    3775    3776 1       1.10630000e+02    3.64928480e+02
   3774    3775    3777 1       1.10630000e+02    3.64928480e+02
   3774    3775    3778 1       1.10630000e+02    3.64928480e+02
   3774    3779    3780 1       1.20020000e+02    5.32790560e+02
   3774    3779    5060 1       1.20640000e+02    5.08439680e+02
   3775    3774    3779 1       1.20830000e+02    5.08272320e+02
   3776    3775    3777 1       1.07730000e+02    2.99574400e+02
   3776    3775    3778 1       1.07730000e+02    2.99574400e+02
   3777    3775    3778 1       1.07730000e+02    2.99574400e+02
   3779    3780    3781 1       1.20020000e+02    5.32790560e+02
   3779    3780    5058 1       1.20640000e+02    5.08439680e+02
   3779    5060    5058 1       1.16810000e+02    4.91368960e+02
   3779    5060    5061 1       1.14530000e+02    3.58485120e+02
   3780    3779    5060 1       1.20640000e+02    5.08439680e+02
   3780    5058    5059 1       1.14530000e+02    3.58485120e+02
   3780    5058    5060 1       1.16810000e+02    4.91368960e+02
   3781    3780    5058 1       1.20640000e+02    5.08439680e+02
   3781    3782    3783 1       1.10630000e+02    3.64928480e+02
   3781    3782    3784 1       1.10630000e+02    3.64928480e+02
   3781    3782    3785 1       1.10630000e+02    3.64928480e+02
   3782    3781    3780 1       1.20830000e+02    5.08272320e+02
   3783    3782    3784 1       1.07730000e+02    2.99574400e+02
   3783    3782    3785 1       1.07730000e+02    2.99574400e+02
   3784    3782    3785 1       1.07730000e+02    2.99574400e+02
   3786    3788    3789 1       1.12000000e+02    3.56811520e+02
   3786    3788    3790 1       1.03090000e+02    5.20322240e+02
   3787    3786    3788 1       1.13690000e+02    3.54217440e+02
   3788    3790    3791 1       1.11170000e+02    3.56895200e+02
   3788    3790    3792 1       1.11170000e+02    3.56895200e+02
   3789    3788    3790 1       1.11170000e+02    3.56895200e+02
   3791    3790    3792 1       1.07220000e+02    3.00494880e+02
   3793    3794    3795 1       1.19880000e+02    3.75723200e+02
   3796    3800    3801 1       1.10280000e+02    5.05761920e+02
   3796    3800    3805 1       1.13070000e+02    5.03000480e+02
   3796    3800    3829 1       1.13070000e+02    5.03000480e+02
   3797    3796    3798 1       1.07730000e+02    2.99574400e+02
   3797    3796    3799 1       1.07730000e+02    2.99574400e+02
   3797    3796    3800 1       1.10530000e+02    3.60326080e+02
   3798    3796    3799 1       1.07730000e+02    2.99574400e+02
   3798    3796    3800 1       1.10530000e+02    3.60326080e+02
   3799    3796    3800 1       1.10530000e+02    3.60326080e+02
   3800    3801    3802 1       1.10530000e+02    3.60326080e+02
   3800    3801    3803 1       1.10530000e+02    3.60326080e+02
   3800    3801    3804 1       1.10530000e+02    3.60326080e+02
   3800    3805    3806 1       1.10210000e+02    5.31033280e+02
   3800    3805    3826 1       1.21870000e+02    5.06012960e+02
   3800    3829    3828 1       1.10210000e+02    5.31033280e+02
   3800    3829    3830 1       1.21870000e+02    5.06012960e+02
   3801    3800    3805 1       1.13070000e+02    5.03000480e+02
   3801    3800    3829 1       1.13070000e+02    5.03000480e+02
   3802    3801    3803 1       1.07730000e+02    2.99574400e+02
   3802    3801    3804 1       1.07730000e+02    2.99574400e+02
   3803    3801    3804 1       1.07730000e+02    2.99574400e+02
   3805    3800    3829 1       1.12520000e+02    5.08021280e+02
   3805    3806    3807 1       1.18410000e+02    5.33794720e+02
   3805    3806    3828 1       1.21100000e+02    5.12958400e+02
   3805    3826    3825 1       1.20020000e+02    5.32790560e+02
   3805    3826    3827 1       1.19880000e+02    3.75723200e+02
   3806    3805    3826 1       1.20730000e+02    5.29945440e+02
   3806    3807    3808 1       1.19820000e+02    3.74300640e+02
   3806    3807    3809 1       1.20730000e+02    5.29945440e+02
   3806    3828    3829 1       1.21100000e+02    5.12958400e+02
   3806    3828    3863 1       1.21100000e+02    5.12958400e+02
   3807    3806    3828 1       1.21100000e+02    5.12958400e+02
   3807    3809    3810 1       1.20640000e+02    5.08439680e+02
   3807    3809    3825 1       1.20020000e+02    5.32790560e+02
   3808    3807    3809 1       1.19880000e+02    3.75723200e+02
   3809    3810    3811 1       1.14530000e+02    3.58485120e+02
   3809    3810    3812 1       1.16810000e+02    4.91368960e+02
   3809    3810    3820 1       1.24830000e+02    4.77729120e+02
   3809    3825    3812 1       1.20640000e+02    5.08439680e+02
   3809    3825    3826 1       1.20020000e+02    5.32790560e+02
   3810    3809    3825 1       1.20640000e+02    5.08439680e+02
   3810    3812    3813 1       1.14760000e+02    3.49364000e+02
   3810    3812    3814 1       1.22490000e+02    4.75804480e+02
   3810    3812    3825 1       1.16810000e+02    4.91368960e+02
   3810    3820    3818 1       9.60300000e+01    5.40070720e+02
   3810    3820    3821 1       1.12000000e+02    3.56811520e+02
   3810    3820    3822 1       1.03090000e+02    5.20322240e+02
   3811    3810    3812 1       1.14760000e+02    3.49364000e+02
   3811    3810    3820 1       1.13690000e+02    3.54217440e+02
   3812    3810    3820 1       1.22490000e+02    4.75804480e+02
   3812    3814    3815 1       1.12000000e+02    3.56811520e+02
   3812    3814    3816 1       9.60300000e+01    5.40070720e+02
   3812    3814    3822 1       1.03090000e+02    5.20322240e+02
   3812    3825    3826 1       1.20640000e+02    5.08439680e+02
   3813    3812    3814 1       1.13690000e+02    3.54217440e+02
   3813    3812    3825 1       1.14530000e+02    3.58485120e+02
   3814    3812    3825 1       1.24830000e+02    4.77729120e+02
   3814    3816    3817 1       1.13690000e+02    3.54217440e+02
   3814    3816    3818 1       1.22490000e+02    4.75804480e+02
   3814    3816    5850 1       1.24830000e+02    4.77729120e+02
   3814    3822    3820 1       1.03830000e+02    5.17477120e+02
   3814    3822    3823 1       1.11170000e+02    3.56895200e+02
   3814    3822    3824 1       1.11170000e+02    3.56895200e+02
   3815    3814    3822 1       1.11170000e+02    3.56895200e+02
   3816    3814    3815 1       1.12000000e+02    3.56811520e+02
   3816    3818    3819 1       1.14760000e+02    3.49364000e+02
   3818    3816    3817 1       1.14760000e+02    3.49364000e+02
   3818    3820    3821 1       1.12000000e+02    3.56811520e+02
   3820    3818    3816 1       1.22490000e+02    4.75804480e+02
   3820    3818    3819 1       1.13690000e+02    3.54217440e+02
   3820    3818    5849 1       1.24830000e+02    4.77729120e+02
   3820    3822    3823 1       1.11170000e+02    3.56895200e+02
   3820    3822    3824 1       1.11170000e+02    3.56895200e+02
   3821    3820    3822 1       1.11170000e+02    3.56895200e+02
   3822    3814    3816 1       1.03090000e+02    5.20322240e+02
   3822    3820    3818 1       1.03090000e+02    5.20322240e+02
   3823    3822    3824 1       1.07220000e+02    3.00494880e+02
   3825    3826    3827 1       1.19880000e+02    3.75723200e+02
   3828    3829    3830 1       1.20730000e+02    5.29945440e+02
   3828    3863    3862 1       1.20730000e+02    5.29945440e+02
   3828    3863    3864 1       1.19820000e+02    3.74300640e+02
   3829    3828    3863 1       1.18410000e+02    5.33794720e+02
   3829    3830    3831 1       1.19880000e+02    3.75723200e+02
   3829    3830    3832 1       1.20020000e+02    5.32790560e+02
   3830    3832    3833 1       1.20640000e+02    5.08439680e+02
   3830    3832    3862 1       1.20020000e+02    5.32790560e+02
   3831    3830    3832 1       1.19880000e+02    3.75723200e+02
   3832    3833    3834 1       1.14530000e+02    3.58485120e+02
   3832    3833    3835 1       1.16810000e+02    4.91368960e+02
   3832    3833    3857 1       1.24830000e+02    4.77729120e+02
   3832    3862    3835 1       1.20640000e+02    5.08439680e+02
   3832    3862    3863 1       1.20020000e+02    5.32790560e+02
   3833    3832    3862 1       1.20640000e+02    5.08439680e+02
   3833    3835    3836 1       1.14760000e+02    3.49364000e+02
   3833    3835    3837 1       1.22490000e+02    4.75804480e+02
   3833    3835    3862 1       1.16810000e+02    4.91368960e+02
   3833    3857    3855 1       9.60300000e+01    5.40070720e+02
   3833    3857    3858 1       1.12000000e+02    3.56811520e+02
   3833    3857    3859 1       1.03090000e+02    5.20322240e+02
   3834    3833    3835 1       1.14760000e+02    3.49364000e+02
   3834    3833    3857 1       1.13690000e+02    3.54217440e+02
   3835    3833    3857 1       1.22490000e+02    4.75804480e+02
   3835    3837    3838 1       1.12000000e+02    3.56811520e+02
   3835    3837    3839 1       9.60300000e+01    5.40070720e+02
   3835    3837    3859 1       1.03090000e+02    5.20322240e+02
   3835    3862    3863 1       1.20640000e+02    5.08439680e+02
   3836    3835    3837 1       1.13690000e+02    3.54217440e+02
   3836    3835    3862 1       1.14530000e+02    3.58485120e+02
   3837    3835    3862 1       1.24830000e+02    4.77729120e+02
   3837    3839    3840 1       1.13690000e+02    3.54217440e+02
   3837    3839    3841 1       1.24830000e+02    4.77729120e+02
   3837    3839    3855 1       1.22490000e+02    4.75804480e+02
   3837    3859    3857 1       1.03830000e+02    5.17477120e+02
   3837    3859    3860 1       1.11170000e+02    3.56895200e+02
   3837    3859    3861 1       1.11170000e+02    3.56895200e+02
   3838    3837    3839 1       1.12000000e+02    3.56811520e+02
   3838    3837    3859 1       1.11170000e+02    3.56895200e+02
   3839    3837    3859 1       1.03090000e+02    5.20322240e+02
   3839    3841    3842 1       1.20640000e+02    5.08439680e+02
   3839    3841    3850 1       1.20640000e+02    5.08439680e+02
   3839    3855    3842 1       1.16810000e+02    4.91368960e+02
   3839    3855    3856 1       1.14760000e+02    3.49364000e+02
   3839    3855    3857 1       1.22490000e+02    4.75804480e+02
   3840    3839    3841 1       1.14530000e+02    3.58485120e+02
   3840    3839    3855 1       1.14760000e+02    3.49364000e+02
   3841    3839    3855 1       1.16810000e+02    4.91368960e+02
   3841    3842    3843 1       1.20020000e+02    5.32790560e+02
   3841    3842    3855 1       1.20640000e+02    5.08439680e+02
   3841    3850    3849 1       1.20020000e+02    5.32790560e+02
   3841    3850    3851 1       1.20830000e+02    5.08272320e+02
   3842    3841    3850 1       1.20020000e+02    5.32790560e+02
   3842    3843    3844 1       1.20830000e+02    5.08272320e+02
   3842    3843    3848 1       1.20020000e+02    5.32790560e+02
   3842    3855    3856 1       1.14530000e+02    3.58485120e+02
   3842    3855    3857 1       1.24830000e+02    4.77729120e+02
   3843    3842    3855 1       1.20640000e+02    5.08439680e+02
   3843    3844    3845 1       1.10630000e+02    3.64928480e+02
   3843    3844    3846 1       1.10630000e+02    3.64928480e+02
   3843    3844    3847 1       1.10630000e+02    3.64928480e+02
   3843    3848    3849 1       1.20020000e+02    5.32790560e+02
   3843    3848    6302 1       1.20640000e+02    5.08439680e+02
   3844    3843    3848 1       1.20830000e+02    5.08272320e+02
   3845    3844    3846 1       1.07730000e+02    2.99574400e+02
   3845    3844    3847 1       1.07730000e+02    2.99574400e+02
   3846    3844    3847 1       1.07730000e+02    2.99574400e+02
   3848    3849    3850 1       1.20020000e+02    5.32790560e+02
   3848    3849    6300 1       1.20640000e+02    5.08439680e+02
   3848    6302    6300 1       1.16810000e+02    4.91368960e+02
   3848    6302    6303 1       1.14530000e+02    3.58485120e+02
   3849    3848    6302 1       1.20640000e+02    5.08439680e+02
   3849    6300    6301 1       1.14530000e+02    3.58485120e+02
   3849    6300    6302 1       1.16810000e+02    4.91368960e+02
   3850    3849    6300 1       1.20640000e+02    5.08439680e+02
   3850    3851    3852 1       1.10630000e+02    3.64928480e+02
   3850    3851    3853 1       1.10630000e+02    3.64928480e+02
   3850    3851    3854 1       1.10630000e+02    3.64928480e+02
   3851    3850    3849 1       1.20830000e+02    5.08272320e+02
   3852    3851    3853 1       1.07730000e+02    2.99574400e+02
   3852    3851    3854 1       1.07730000e+02    2.99574400e+02
   3853    3851    3854 1       1.07730000e+02    2.99574400e+02
   3855    3857    3858 1       1.12000000e+02    3.56811520e+02
   3855    3857    3859 1       1.03090000e+02    5.20322240e+02
   3856    3855    3857 1       1.13690000e+02    3.54217440e+02
   3857    3859    3860 1       1.11170000e+02    3.56895200e+02
   3857    3859    3861 1       1.11170000e+02    3.56895200e+02
   3858    3857    3859 1       1.11170000e+02    3.56895200e+02
   3860    3859    3861 1       1.07220000e+02    3.00494880e+02
   3862    3863    3864 1       1.19880000e+02    3.75723200e+02
   3865    3869    3870 1       1.10280000e+02    5.05761920e+02
   3865    3869    3874 1       1.13070000e+02    5.03000480e+02
   3865    3869    3898 1       1.13070000e+02    5.03000480e+02
   3866    3865    3867 1       1.07730000e+02    2.99574400e+02
   3866    3865    3868 1       1.07730000e+02    2.99574400e+02
   3866    3865    3869 1       1.10530000e+02    3.60326080e+02
   3867    3865    3868 1       1.07730000e+02    2.99574400e+02
   3867    3865    3869 1       1.10530000e+02    3.60326080e+02
   3868    3865    3869 1       1.10530000e+02    3.60326080e+02
   3869    3870    3871 1       1.10530000e+02    3.60326080e+02
   3869    3870    3872 1       1.10530000e+02    3.60326080e+02
   3869    3870    3873 1       1.10530000e+02    3.60326080e+02
   3869    3874    3875 1       1.10210000e+02    5.31033280e+02
   3869    3874    3895 1       1.21870000e+02    5.06012960e+02
   3869    3898    3897 1       1.10210000e+02    5.31033280e+02
   3869    3898    3899 1       1.21870000e+02    5.06012960e+02
   3870    3869    3874 1       1.13070000e+02    5.03000480e+02
   3870    3869    3898 1       1.13070000e+02    5.03000480e+02
   3871    3870    3872 1       1.07730000e+02    2.99574400e+02
   3871    3870    3873 1       1.07730000e+02    2.99574400e+02
   3872    3870    3873 1       1.07730000e+02    2.99574400e+02
   3874    3869    3898 1       1.12520000e+02    5.08021280e+02
   3874    3875    3876 1       1.18410000e+02    5.33794720e+02
   3874    3875    3897 1       1.21100000e+02    5.12958400e+02
   3874    3895    3894 1       1.20020000e+02    5.32790560e+02
   3874    3895    3896 1       1.19880000e+02    3.75723200e+02
   3875    3874    3895 1       1.20730000e+02    5.29945440e+02
   3875    3876    3877 1       1.19820000e+02    3.74300640e+02
   3875    3876    3878 1       1.20730000e+02    5.29945440e+02
   3875    3897    3898 1       1.21100000e+02    5.12958400e+02
   3875    3897    3932 1       1.21100000e+02    5.12958400e+02
   3876    3875    3897 1       1.21100000e+02    5.12958400e+02
   3876    3878    3879 1       1.20640000e+02    5.08439680e+02
   3876    3878    3894 1       1.20020000e+02    5.32790560e+02
   3877    3876    3878 1       1.19880000e+02    3.75723200e+02
   3878    3879    3880 1       1.14530000e+02    3.58485120e+02
   3878    3879    3881 1       1.16810000e+02    4.91368960e+02
   3878    3879    3889 1       1.24830000e+02    4.77729120e+02
   3878    3894    3881 1       1.20640000e+02    5.08439680e+02
   3878    3894    3895 1       1.20020000e+02    5.32790560e+02
   3879    3878    3894 1       1.20640000e+02    5.08439680e+02
   3879    3881    3882 1       1.14760000e+02    3.49364000e+02
   3879    3881    3883 1       1.22490000e+02    4.75804480e+02
   3879    3881    3894 1       1.16810000e+02    4.91368960e+02
   3879    3889    3887 1       9.60300000e+01    5.40070720e+02
   3879    3889    3890 1       1.12000000e+02    3.56811520e+02
   3879    3889    3891 1       1.03090000e+02    5.20322240e+02
   3880    3879    3881 1       1.14760000e+02    3.49364000e+02
   3880    3879    3889 1       1.13690000e+02    3.54217440e+02
   3881    3879    3889 1       1.22490000e+02    4.75804480e+02
   3881    3883    3884 1       1.12000000e+02    3.56811520e+02
   3881    3883    3885 1       9.60300000e+01    5.40070720e+02
   3881    3883    3891 1       1.03090000e+02    5.20322240e+02
   3881    3894    3895 1       1.20640000e+02    5.08439680e+02
   3882    3881    3883 1       1.13690000e+02    3.54217440e+02
   3882    3881    3894 1       1.14530000e+02    3.58485120e+02
   3883    3881    3894 1       1.24830000e+02    4.77729120e+02
   3883    3885    3886 1       1.13690000e+02    3.54217440e+02
   3883    3885    3887 1       1.22490000e+02    4.75804480e+02
   3883    3885    6333 1       1.24830000e+02    4.77729120e+02
   3883    3891    3889 1       1.03830000e+02    5.17477120e+02
   3883    3891    3892 1       1.11170000e+02    3.56895200e+02
   3883    3891    3893 1       1.11170000e+02    3.56895200e+02
   3884    3883    3891 1       1.11170000e+02    3.56895200e+02
   3885    3883    3884 1       1.12000000e+02    3.56811520e+02
   3885    3887    3888 1       1.14760000e+02    3.49364000e+02
   3887    3885    3886 1       1.14760000e+02    3.49364000e+02
   3887    3889    3890 1       1.12000000e+02    3.56811520e+02
   3889    3887    3885 1       1.22490000e+02    4.75804480e+02
   3889    3887    3888 1       1.13690000e+02    3.54217440e+02
   3889    3887    6332 1       1.24830000e+02    4.77729120e+02
   3889    3891    3892 1       1.11170000e+02    3.56895200e+02
   3889    3891    3893 1       1.11170000e+02    3.56895200e+02
   3890    3889    3891 1       1.11170000e+02    3.56895200e+02
   3891    3883    3885 1       1.03090000e+02    5.20322240e+02
   3891    3889    3887 1       1.03090000e+02    5.20322240e+02
   3892    3891    3893 1       1.07220000e+02    3.00494880e+02
   3894    3895    3896 1       1.19880000e+02    3.75723200e+02
   3897    3898    3899 1       1.20730000e+02    5.29945440e+02
   3897    3932    3931 1       1.20730000e+02    5.29945440e+02
   3897    3932    3933 1       1.19820000e+02    3.74300640e+02
   3898    3897    3932 1       1.18410000e+02    5.33794720e+02
   3898    3899    3900 1       1.19880000e+02    3.75723200e+02
   3898    3899    3901 1       1.20020000e+02    5.32790560e+02
   3899    3901    3902 1       1.20640000e+02    5.08439680e+02
   3899    3901    3931 1       1.20020000e+02    5.32790560e+02
   3900    3899    3901 1       1.19880000e+02    3.75723200e+02
   3901    3902    3903 1       1.14530000e+02    3.58485120e+02
   3901    3902    3904 1       1.16810000e+02    4.91368960e+02
   3901    3902    3926 1       1.24830000e+02    4.77729120e+02
   3901    3931    3904 1       1.20640000e+02    5.08439680e+02
   3901    3931    3932 1       1.20020000e+02    5.32790560e+02
   3902    3901    3931 1       1.20640000e+02    5.08439680e+02
   3902    3904    3905 1       1.14760000e+02    3.49364000e+02
   3902    3904    3906 1       1.22490000e+02    4.75804480e+02
   3902    3904    3931 1       1.16810000e+02    4.91368960e+02
   3902    3926    3924 1       9.60300000e+01    5.40070720e+02
   3902    3926    3927 1       1.12000000e+02    3.56811520e+02
   3902    3926    3928 1       1.03090000e+02    5.20322240e+02
   3903    3902    3904 1       1.14760000e+02    3.49364000e+02
   3903    3902    3926 1       1.13690000e+02    3.54217440e+02
   3904    3902    3926 1       1.22490000e+02    4.75804480e+02
   3904    3906    3907 1       1.12000000e+02    3.56811520e+02
   3904    3906    3908 1       9.60300000e+01    5.40070720e+02
   3904    3906    3928 1       1.03090000e+02    5.20322240e+02
   3904    3931    3932 1       1.20640000e+02    5.08439680e+02
   3905    3904    3906 1       1.13690000e+02    3.54217440e+02
   3905    3904    3931 1       1.14530000e+02    3.58485120e+02
   3906    3904    3931 1       1.24830000e+02    4.77729120e+02
   3906    3908    3909 1       1.13690000e+02    3.54217440e+02
   3906    3908    3910 1       1.24830000e+02    4.77729120e+02
   3906    3908    3924 1       1.22490000e+02    4.75804480e+02
   3906    3928    3926 1       1.03830000e+02    5.17477120e+02
   3906    3928    3929 1       1.11170000e+02    3.56895200e+02
   3906    3928    3930 1       1.11170000e+02    3.56895200e+02
   3907    3906    3908 1       1.12000000e+02    3.56811520e+02
   3907    3906    3928 1       1.11170000e+02    3.56895200e+02
   3908    3906    3928 1       1.03090000e+02    5.20322240e+02
   3908    3910    3911 1       1.20640000e+02    5.08439680e+02
   3908    3910    3919 1       1.20640000e+02    5.08439680e+02
   3908    3924    3911 1       1.16810000e+02    4.91368960e+02
   3908    3924    3925 1       1.14760000e+02    3.49364000e+02
   3908    3924    3926 1       1.22490000e+02    4.75804480e+02
   3909    3908    3910 1       1.14530000e+02    3.58485120e+02
   3909    3908    3924 1       1.14760000e+02    3.49364000e+02
   3910    3908    3924 1       1.16810000e+02    4.91368960e+02
   3910    3911    3912 1       1.20020000e+02    5.32790560e+02
   3910    3911    3924 1       1.20640000e+02    5.08439680e+02
   3910    3919    3918 1       1.20020000e+02    5.32790560e+02
   3910    3919    3920 1       1.20830000e+02    5.08272320e+02
   3911    3910    3919 1       1.20020000e+02    5.32790560e+02
   3911    3912    3913 1       1.20830000e+02    5.08272320e+02
   3911    3912    3917 1       1.20020000e+02    5.32790560e+02
   3911    3924    3925 1       1.14530000e+02    3.58485120e+02
   3911    3924    3926 1       1.24830000e+02    4.77729120e+02
   3912    3911    3924 1       1.20640000e+02    5.08439680e+02
   3912    3913    3914 1       1.10630000e+02    3.64928480e+02
   3912    3913    3915 1       1.10630000e+02    3.64928480e+02
   3912    3913    3916 1       1.10630000e+02    3.64928480e+02
   3912    3917    3918 1       1.20020000e+02    5.32790560e+02
   3912    3917    5610 1       1.20640000e+02    5.08439680e+02
   3913    3912    3917 1       1.20830000e+02    5.08272320e+02
   3914    3913    3915 1       1.07730000e+02    2.99574400e+02
   3914    3913    3916 1       1.07730000e+02    2.99574400e+02
   3915    3913    3916 1       1.07730000e+02    2.99574400e+02
   3917    3918    3919 1       1.20020000e+02    5.32790560e+02
   3917    3918    5612 1       1.20640000e+02    5.08439680e+02
   3917    5610    5611 1       1.14530000e+02    3.58485120e+02
   3917    5610    5612 1       1.16810000e+02    4.91368960e+02
   3918    3917    5610 1       1.20640000e+02    5.08439680e+02
   3918    5612    5610 1       1.16810000e+02    4.91368960e+02
   3918    5612    5613 1       1.14530000e+02    3.58485120e+02
   3919    3918    5612 1       1.20640000e+02    5.08439680e+02
   3919    3920    3921 1       1.10630000e+02    3.64928480e+02
   3919    3920    3922 1       1.10630000e+02    3.64928480e+02
   3919    3920    3923 1       1.10630000e+02    3.64928480e+02
   3920    3919    3918 1       1.20830000e+02    5.08272320e+02
   3921    3920    3922 1       1.07730000e+02    2.99574400e+02
   3921    3920    3923 1       1.07730000e+02    2.99574400e+02
   3922    3920    3923 1       1.07730000e+02    2.99574400e+02
   3924    3926    3927 1       1.12000000e+02    3.56811520e+02
   3924    3926    3928 1       1.03090000e+02    5.20322240e+02
   3925    3924    3926 1       1.13690000e+02    3.54217440e+02
   3926    3928    3929 1       1.11170000e+02    3.56895200e+02
   3926    3928    3930 1       1.11170000e+02    3.56895200e+02
   3927    3926    3928 1       1.11170000e+02    3.56895200e+02
   3929    3928    3930 1       1.07220000e+02    3.00494880e+02
   3931    3932    3933 1       1.19880000e+02    3.75723200e+02
   3934    3938    3939 1       1.10280000e+02    5.05761920e+02
   3934    3938    3943 1       1.13070000e+02    5.03000480e+02
   3934    3938    3967 1       1.13070000e+02    5.03000480e+02
   3935    3934    3936 1       1.07730000e+02    2.99574400e+02
   3935    3934    3937 1       1.07730000e+02    2.99574400e+02
   3935    3934    3938 1       1.10530000e+02    3.60326080e+02
   3936    3934    3937 1       1.07730000e+02    2.99574400e+02
   3936    3934    3938 1       1.10530000e+02    3.60326080e+02
   3937    3934    3938 1       1.10530000e+02    3.60326080e+02
   3938    3939    3940 1       1.10530000e+02    3.60326080e+02
   3938    3939    3941 1       1.10530000e+02    3.60326080e+02
   3938    3939    3942 1       1.10530000e+02    3.60326080e+02
   3938    3943    3944 1       1.10210000e+02    5.31033280e+02
   3938    3943    3964 1       1.21870000e+02    5.06012960e+02
   3938    3967    3966 1       1.10210000e+02    5.31033280e+02
   3938    3967    3968 1       1.21870000e+02    5.06012960e+02
   3939    3938    3943 1       1.13070000e+02    5.03000480e+02
   3939    3938    3967 1       1.13070000e+02    5.03000480e+02
   3940    3939    3941 1       1.07730000e+02    2.99574400e+02
   3940    3939    3942 1       1.07730000e+02    2.99574400e+02
   3941    3939    3942 1       1.07730000e+02    2.99574400e+02
   3943    3938    3967 1       1.12520000e+02    5.08021280e+02
   3943    3944    3945 1       1.18410000e+02    5.33794720e+02
   3943    3944    3966 1       1.21100000e+02    5.12958400e+02
   3943    3964    3963 1       1.20020000e+02    5.32790560e+02
   3943    3964    3965 1       1.19880000e+02    3.75723200e+02
   3944    3943    3964 1       1.20730000e+02    5.29945440e+02
   3944    3945    3946 1       1.19820000e+02    3.74300640e+02
   3944    3945    3947 1       1.20730000e+02    5.29945440e+02
   3944    3966    3967 1       1.21100000e+02    5.12958400e+02
   3944    3966    4001 1       1.21100000e+02    5.12958400e+02
   3945    3944    3966 1       1.21100000e+02    5.12958400e+02
   3945    3947    3948 1       1.20640000e+02    5.08439680e+02
   3945    3947    3963 1       1.20020000e+02    5.32790560e+02
   3946    3945    3947 1       1.19880000e+02    3.75723200e+02
   3947    3948    3949 1       1.14530000e+02    3.58485120e+02
   3947    3948    3950 1       1.16810000e+02    4.91368960e+02
   3947    3948    3958 1       1.24830000e+02    4.77729120e+02
   3947    3963    3950 1       1.20640000e+02    5.08439680e+02
   3947    3963    3964 1       1.20020000e+02    5.32790560e+02
   3948    3947    3963 1       1.20640000e+02    5.08439680e+02
   3948    3950    3951 1       1.14760000e+02    3.49364000e+02
   3948    3950    3952 1       1.22490000e+02    4.75804480e+02
   3948    3950    3963 1       1.16810000e+02    4.91368960e+02
   3948    3958    3956 1       9.60300000e+01    5.40070720e+02
   3948    3958    3959 1       1.12000000e+02    3.56811520e+02
   3948    3958    3960 1       1.03090000e+02    5.20322240e+02
   3949    3948    3950 1       1.14760000e+02    3.49364000e+02
   3949    3948    3958 1       1.13690000e+02    3.54217440e+02
   3950    3948    3958 1       1.22490000e+02    4.75804480e+02
   3950    3952    3953 1       1.12000000e+02    3.56811520e+02
   3950    3952    3954 1       9.60300000e+01    5.40070720e+02
   3950    3952    3960 1       1.03090000e+02    5.20322240e+02
   3950    3963    3964 1       1.20640000e+02    5.08439680e+02
   3951    3950    3952 1       1.13690000e+02    3.54217440e+02
   3951    3950    3963 1       1.14530000e+02    3.58485120e+02
   3952    3950    3963 1       1.24830000e+02    4.77729120e+02
   3952    3954    3020 1       1.24830000e+02    4.77729120e+02
   3952    3954    3955 1       1.13690000e+02    3.54217440e+02
   3952    3954    3956 1       1.22490000e+02    4.75804480e+02
   3952    3960    3958 1       1.03830000e+02    5.17477120e+02
   3952    3960    3961 1       1.11170000e+02    3.56895200e+02
   3952    3960    3962 1       1.11170000e+02    3.56895200e+02
   3953    3952    3960 1       1.11170000e+02    3.56895200e+02
   3954    3952    3953 1       1.12000000e+02    3.56811520e+02
   3954    3956    3957 1       1.14760000e+02    3.49364000e+02
   3956    3954    3955 1       1.14760000e+02    3.49364000e+02
   3956    3958    3959 1       1.12000000e+02    3.56811520e+02
   3958    3956    3021 1       1.24830000e+02    4.77729120e+02
   3958    3956    3954 1       1.22490000e+02    4.75804480e+02
   3958    3956    3957 1       1.13690000e+02    3.54217440e+02
   3958    3960    3961 1       1.11170000e+02    3.56895200e+02
   3958    3960    3962 1       1.11170000e+02    3.56895200e+02
   3959    3958    3960 1       1.11170000e+02    3.56895200e+02
   3960    3952    3954 1       1.03090000e+02    5.20322240e+02
   3960    3958    3956 1       1.03090000e+02    5.20322240e+02
   3961    3960    3962 1       1.07220000e+02    3.00494880e+02
   3963    3964    3965 1       1.19880000e+02    3.75723200e+02
   3966    3967    3968 1       1.20730000e+02    5.29945440e+02
   3966    4001    4000 1       1.20730000e+02    5.29945440e+02
   3966    4001    4002 1       1.19820000e+02    3.74300640e+02
   3967    3966    4001 1       1.18410000e+02    5.33794720e+02
   3967    3968    3969 1       1.19880000e+02    3.75723200e+02
   3967    3968    3970 1       1.20020000e+02    5.32790560e+02
   3968    3970    3971 1       1.20640000e+02    5.08439680e+02
   3968    3970    4000 1       1.20020000e+02    5.32790560e+02
   3969    3968    3970 1       1.19880000e+02    3.75723200e+02
   3970    3971    3972 1       1.14530000e+02    3.58485120e+02
   3970    3971    3973 1       1.16810000e+02    4.91368960e+02
   3970    3971    3995 1       1.24830000e+02    4.77729120e+02
   3970    4000    3973 1       1.20640000e+02    5.08439680e+02
   3970    4000    4001 1       1.20020000e+02    5.32790560e+02
   3971    3970    4000 1       1.20640000e+02    5.08439680e+02
   3971    3973    3974 1       1.14760000e+02    3.49364000e+02
   3971    3973    3975 1       1.22490000e+02    4.75804480e+02
   3971    3973    4000 1       1.16810000e+02    4.91368960e+02
   3971    3995    3993 1       9.60300000e+01    5.40070720e+02
   3971    3995    3996 1       1.12000000e+02    3.56811520e+02
   3971    3995    3997 1       1.03090000e+02    5.20322240e+02
   3972    3971    3973 1       1.14760000e+02    3.49364000e+02
   3972    3971    3995 1       1.13690000e+02    3.54217440e+02
   3973    3971    3995 1       1.22490000e+02    4.75804480e+02
   3973    3975    3976 1       1.12000000e+02    3.56811520e+02
   3973    3975    3977 1       9.60300000e+01    5.40070720e+02
   3973    3975    3997 1       1.03090000e+02    5.20322240e+02
   3973    4000    4001 1       1.20640000e+02    5.08439680e+02
   3974    3973    3975 1       1.13690000e+02    3.54217440e+02
   3974    3973    4000 1       1.14530000e+02    3.58485120e+02
   3975    3973    4000 1       1.24830000e+02    4.77729120e+02
   3975    3977    3978 1       1.13690000e+02    3.54217440e+02
   3975    3977    3979 1       1.24830000e+02    4.77729120e+02
   3975    3977    3993 1       1.22490000e+02    4.75804480e+02
   3975    3997    3995 1       1.03830000e+02    5.17477120e+02
   3975    3997    3998 1       1.11170000e+02    3.56895200e+02
   3975    3997    3999 1       1.11170000e+02    3.56895200e+02
   3976    3975    3977 1       1.12000000e+02    3.56811520e+02
   3976    3975    3997 1       1.11170000e+02    3.56895200e+02
   3977    3975    3997 1       1.03090000e+02    5.20322240e+02
   3977    3979    3980 1       1.20640000e+02    5.08439680e+02
   3977    3979    3988 1       1.20640000e+02    5.08439680e+02
   3977    3993    3980 1       1.16810000e+02    4.91368960e+02
   3977    3993    3994 1       1.14760000e+02    3.49364000e+02
   3977    3993    3995 1       1.22490000e+02    4.75804480e+02
   3978    3977    3979 1       1.14530000e+02    3.58485120e+02
   3978    3977    3993 1       1.14760000e+02    3.49364000e+02
   3979    3977    3993 1       1.16810000e+02    4.91368960e+02
   3979    3980    3981 1       1.20020000e+02    5.32790560e+02
   3979    3980    3993 1       1.20640000e+02    5.08439680e+02
   3979    3988    3987 1       1.20020000e+02    5.32790560e+02
   3979    3988    3989 1       1.20830000e+02    5.08272320e+02
   3980    3979    3988 1       1.20020000e+02    5.32790560e+02
   3980    3981    3982 1       1.20830000e+02    5.08272320e+02
   3980    3981    3986 1       1.20020000e+02    5.32790560e+02
   3980    3993    3994 1       1.14530000e+02    3.58485120e+02
   3980    3993    3995 1       1.24830000e+02    4.77729120e+02
   3981    3980    3993 1       1.20640000e+02    5.08439680e+02
   3981    3982    3983 1       1.10630000e+02    3.64928480e+02
   3981    3982    3984 1       1.10630000e+02    3.64928480e+02
   3981    3982    3985 1       1.10630000e+02    3.64928480e+02
   3981    3986    1815 1       1.20640000e+02    5.08439680e+02
   3981    3986    3987 1       1.20020000e+02    5.32790560e+02
   3982    3981    3986 1       1.20830000e+02    5.08272320e+02
   3983    3982    3984 1       1.07730000e+02    2.99574400e+02
   3983    3982    3985 1       1.07730000e+02    2.99574400e+02
   3984    3982    3985 1       1.07730000e+02    2.99574400e+02
   3986    1815    1816 1       1.14530000e+02    3.58485120e+02
   3986    1815    1817 1       1.16810000e+02    4.91368960e+02
   3986    3987    1817 1       1.20640000e+02    5.08439680e+02
   3986    3987    3988 1       1.20020000e+02    5.32790560e+02
   3987    1817    1815 1       1.16810000e+02    4.91368960e+02
   3987    1817    1818 1       1.14530000e+02    3.58485120e+02
   3987    3986    1815 1       1.20640000e+02    5.08439680e+02
   3988    3987    1817 1       1.20640000e+02    5.08439680e+02
   3988    3989    3990 1       1.10630000e+02    3.64928480e+02
   3988    3989    3991 1       1.10630000e+02    3.64928480e+02
   3988    3989    3992 1       1.10630000e+02    3.64928480e+02
   3989    3988    3987 1       1.20830000e+02    5.08272320e+02
   3990    3989    3991 1       1.07730000e+02    2.99574400e+02
   3990    3989    3992 1       1.07730000e+02    2.99574400e+02
   3991    3989    3992 1       1.07730000e+02    2.99574400e+02
   3993    3995    3996 1       1.12000000e+02    3.56811520e+02
   3993    3995    3997 1       1.03090000e+02    5.20322240e+02
   3994    3993    3995 1       1.13690000e+02    3.54217440e+02
   3995    3997    3998 1       1.11170000e+02    3.56895200e+02
   3995    3997    3999 1       1.11170000e+02    3.56895200e+02
   3996    3995    3997 1       1.11170000e+02    3.56895200e+02
   3998    3997    3999 1       1.07220000e+02    3.00494880e+02
   4000    4001    4002 1       1.19880000e+02    3.75723200e+02
   4003    4007    4008 1       1.10280000e+02    5.05761920e+02
   4003    4007    4012 1       1.13070000e+02    5.03000480e+02
   4003    4007    4036 1       1.13070000e+02    5.03000480e+02
   4004    4003    4005 1       1.07730000e+02    2.99574400e+02
   4004    4003    4006 1       1.07730000e+02    2.99574400e+02
   4004    4003    4007 1       1.10530000e+02    3.60326080e+02
   4005    4003    4006 1       1.07730000e+02    2.99574400e+02
   4005    4003    4007 1       1.10530000e+02    3.60326080e+02
   4006    4003    4007 1       1.10530000e+02    3.60326080e+02
   4007    4008    4009 1       1.10530000e+02    3.60326080e+02
   4007    4008    4010 1       1.10530000e+02    3.60326080e+02
   4007    4008    4011 1       1.10530000e+02    3.60326080e+02
   4007    4012    4013 1       1.10210000e+02    5.31033280e+02
   4007    4012    4033 1       1.21870000e+02    5.06012960e+02
   4007    4036    4035 1       1.10210000e+02    5.31033280e+02
   4007    4036    4037 1       1.21870000e+02    5.06012960e+02
   4008    4007    4012 1       1.13070000e+02    5.03000480e+02
   4008    4007    4036 1       1.13070000e+02    5.03000480e+02
   4009    4008    4010 1       1.07730000e+02    2.99574400e+02
   4009    4008    4011 1       1.07730000e+02    2.99574400e+02
   4010    4008    4011 1       1.07730000e+02    2.99574400e+02
   4012    4007    4036 1       1.12520000e+02    5.08021280e+02
   4012    4013    4014 1       1.18410000e+02    5.33794720e+02
   4012    4013    4035 1       1.21100000e+02    5.12958400e+02
   4012    4033    4032 1       1.20020000e+02    5.32790560e+02
   4012    4033    4034 1       1.19880000e+02    3.75723200e+02
   4013    4012    4033 1       1.20730000e+02    5.29945440e+02
   4013    4014    4015 1       1.19820000e+02    3.74300640e+02
   4013    4014    4016 1       1.20730000e+02    5.29945440e+02
   4013    4035    4036 1       1.21100000e+02    5.12958400e+02
   4013    4035    4070 1       1.21100000e+02    5.12958400e+02
   4014    4013    4035 1       1.21100000e+02    5.12958400e+02
   4014    4016    4017 1       1.20640000e+02    5.08439680e+02
   4014    4016    4032 1       1.20020000e+02    5.32790560e+02
   4015    4014    4016 1       1.19880000e+02    3.75723200e+02
   4016    4017    4018 1       1.14530000e+02    3.58485120e+02
   4016    4017    4019 1       1.16810000e+02    4.91368960e+02
   4016    4017    4027 1       1.24830000e+02    4.77729120e+02
   4016    4032    4019 1       1.20640000e+02    5.08439680e+02
   4016    4032    4033 1       1.20020000e+02    5.32790560e+02
   4017    4016    4032 1       1.20640000e+02    5.08439680e+02
   4017    4019    4020 1       1.14760000e+02    3.49364000e+02
   4017    4019    4021 1       1.22490000e+02    4.75804480e+02
   4017    4019    4032 1       1.16810000e+02    4.91368960e+02
   4017    4027    4025 1       9.60300000e+01    5.40070720e+02
   4017    4027    4028 1       1.12000000e+02    3.56811520e+02
   4017    4027    4029 1       1.03090000e+02    5.20322240e+02
   4018    4017    4019 1       1.14760000e+02    3.49364000e+02
   4018    4017    4027 1       1.13690000e+02    3.54217440e+02
   4019    4017    4027 1       1.22490000e+02    4.75804480e+02
   4019    4021    4022 1       1.12000000e+02    3.56811520e+02
   4019    4021    4023 1       9.60300000e+01    5.40070720e+02
   4019    4021    4029 1       1.03090000e+02    5.20322240e+02
   4019    4032    4033 1       1.20640000e+02    5.08439680e+02
   4020    4019    4021 1       1.13690000e+02    3.54217440e+02
   4020    4019    4032 1       1.14530000e+02    3.58485120e+02
   4021    4019    4032 1       1.24830000e+02    4.77729120e+02
   4021    4023     950 1       1.24830000e+02    4.77729120e+02
   4021    4023    4024 1       1.13690000e+02    3.54217440e+02
   4021    4023    4025 1       1.22490000e+02    4.75804480e+02
   4021    4029    4027 1       1.03830000e+02    5.17477120e+02
   4021    4029    4030 1       1.11170000e+02    3.56895200e+02
   4021    4029    4031 1       1.11170000e+02    3.56895200e+02
   4022    4021    4029 1       1.11170000e+02    3.56895200e+02
   4023    4021    4022 1       1.12000000e+02    3.56811520e+02
   4023    4025    4026 1       1.14760000e+02    3.49364000e+02
   4025    4023    4024 1       1.14760000e+02    3.49364000e+02
   4025    4027    4028 1       1.12000000e+02    3.56811520e+02
   4027    4025     951 1       1.24830000e+02    4.77729120e+02
   4027    4025    4023 1       1.22490000e+02    4.75804480e+02
   4027    4025    4026 1       1.13690000e+02    3.54217440e+02
   4027    4029    4030 1       1.11170000e+02    3.56895200e+02
   4027    4029    4031 1       1.11170000e+02    3.56895200e+02
   4028    4027    4029 1       1.11170000e+02    3.56895200e+02
   4029    4021    4023 1       1.03090000e+02    5.20322240e+02
   4029    4027    4025 1       1.03090000e+02    5.20322240e+02
   4030    4029    4031 1       1.07220000e+02    3.00494880e+02
   4032    4033    4034 1       1.19880000e+02    3.75723200e+02
   4035    4036    4037 1       1.20730000e+02    5.29945440e+02
   4035    4070    4069 1       1.20730000e+02    5.29945440e+02
   4035    4070    4071 1       1.19820000e+02    3.74300640e+02
   4036    4035    4070 1       1.18410000e+02    5.33794720e+02
   4036    4037    4038 1       1.19880000e+02    3.75723200e+02
   4036    4037    4039 1       1.20020000e+02    5.32790560e+02
   4037    4039    4040 1       1.20640000e+02    5.08439680e+02
   4037    4039    4069 1       1.20020000e+02    5.32790560e+02
   4038    4037    4039 1       1.19880000e+02    3.75723200e+02
   4039    4040    4041 1       1.14530000e+02    3.58485120e+02
   4039    4040    4042 1       1.16810000e+02    4.91368960e+02
   4039    4040    4064 1       1.24830000e+02    4.77729120e+02
   4039    4069    4042 1       1.20640000e+02    5.08439680e+02
   4039    4069    4070 1       1.20020000e+02    5.32790560e+02
   4040    4039    4069 1       1.20640000e+02    5.08439680e+02
   4040    4042    4043 1       1.14760000e+02    3.49364000e+02
   4040    4042    4044 1       1.22490000e+02    4.75804480e+02
   4040    4042    4069 1       1.16810000e+02    4.91368960e+02
   4040    4064    4062 1       9.60300000e+01    5.40070720e+02
   4040    4064    4065 1       1.12000000e+02    3.56811520e+02
   4040    4064    4066 1       1.03090000e+02    5.20322240e+02
   4041    4040    4042 1       1.14760000e+02    3.49364000e+02
   4041    4040    4064 1       1.13690000e+02    3.54217440e+02
   4042    4040    4064 1       1.22490000e+02    4.75804480e+02
   4042    4044    4045 1       1.12000000e+02    3.56811520e+02
   4042    4044    4046 1       9.60300000e+01    5.40070720e+02
   4042    4044    4066 1       1.03090000e+02    5.20322240e+02
   4042    4069    4070 1       1.20640000e+02    5.08439680e+02
   4043    4042    4044 1       1.13690000e+02    3.54217440e+02
   4043    4042    4069 1       1.14530000e+02    3.58485120e+02
   4044    4042    4069 1       1.24830000e+02    4.77729120e+02
   4044    4046    4047 1       1.13690000e+02    3.54217440e+02
   4044    4046    4048 1       1.24830000e+02    4.77729120e+02
   4044    4046    4062 1       1.22490000e+02    4.75804480e+02
   4044    4066    4064 1       1.03830000e+02    5.17477120e+02
   4044    4066    4067 1       1.11170000e+02    3.56895200e+02
   4044    4066    4068 1       1.11170000e+02    3.56895200e+02
   4045    4044    4046 1       1.12000000e+02    3.56811520e+02
   4045    4044    4066 1       1.11170000e+02    3.56895200e+02
   4046    4044    4066 1       1.03090000e+02    5.20322240e+02
   4046    4048    4049 1       1.20640000e+02    5.08439680e+02
   4046    4048    4057 1       1.20640000e+02    5.08439680e+02
   4046    4062    4049 1       1.16810000e+02    4.91368960e+02
   4046    4062    4063 1       1.14760000e+02    3.49364000e+02
   4046    4062    4064 1       1.22490000e+02    4.75804480e+02
   4047    4046    4048 1       1.14530000e+02    3.58485120e+02
   4047    4046    4062 1       1.14760000e+02    3.49364000e+02
   4048    4046    4062 1       1.16810000e+02    4.91368960e+02
   4048    4049    4050 1       1.20020000e+02    5.32790560e+02
   4048    4049    4062 1       1.20640000e+02    5.08439680e+02
   4048    4057    4056 1       1.20020000e+02    5.32790560e+02
   4048    4057    4058 1       1.20830000e+02    5.08272320e+02
   4049    4048    4057 1       1.20020000e+02    5.32790560e+02
   4049    4050    4051 1       1.20830000e+02    5.08272320e+02
   4049    4050    4055 1       1.20020000e+02    5.32790560e+02
   4049    4062    4063 1       1.14530000e+02    3.58485120e+02
   4049    4062    4064 1       1.24830000e+02    4.77729120e+02
   4050    4049    4062 1       1.20640000e+02    5.08439680e+02
   4050    4051    4052 1       1.10630000e+02    3.64928480e+02
   4050    4051    4053 1       1.10630000e+02    3.64928480e+02
   4050    4051    4054 1       1.10630000e+02    3.64928480e+02
   4050    4055    4056 1       1.20020000e+02    5.32790560e+02
   4050    4055    5888 1       1.20640000e+02    5.08439680e+02
   4051    4050    4055 1       1.20830000e+02    5.08272320e+02
   4052    4051    4053 1       1.07730000e+02    2.99574400e+02
   4052    4051    4054 1       1.07730000e+02    2.99574400e+02
   4053    4051    4054 1       1.07730000e+02    2.99574400e+02
   4055    4056    4057 1       1.20020000e+02    5.32790560e+02
   4055    4056    5886 1       1.20640000e+02    5.08439680e+02
   4055    5888    5886 1       1.16810000e+02    4.91368960e+02
   4055    5888    5889 1       1.14530000e+02    3.58485120e+02
   4056    4055    5888 1       1.20640000e+02    5.08439680e+02
   4056    5886    5887 1       1.14530000e+02    3.58485120e+02
   4056    5886    5888 1       1.16810000e+02    4.91368960e+02
   4057    4056    5886 1       1.20640000e+02    5.08439680e+02
   4057    4058    4059 1       1.10630000e+02    3.64928480e+02
   4057    4058    4060 1       1.10630000e+02    3.64928480e+02
   4057    4058    4061 1       1.10630000e+02    3.64928480e+02
   4058    4057    4056 1       1.20830000e+02    5.08272320e+02
   4059    4058    4060 1       1.07730000e+02    2.99574400e+02
   4059    4058    4061 1       1.07730000e+02    2.99574400e+02
   4060    4058    4061 1       1.07730000e+02    2.99574400e+02
   4062    4064    4065 1       1.12000000e+02    3.56811520e+02
   4062    4064    4066 1       1.03090000e+02    5.20322240e+02
   4063    4062    4064 1       1.13690000e+02    3.54217440e+02
   4064    4066    4067 1       1.11170000e+02    3.56895200e+02
   4064    4066    4068 1       1.11170000e+02    3.56895200e+02
   4065    4064    4066 1       1.11170000e+02    3.56895200e+02
   4067    4066    4068 1       1.07220000e+02    3.00494880e+02
   4069    4070    4071 1       1.19880000e+02    3.75723200e+02
   4072    4076    4077 1       1.10280000e+02    5.05761920e+02
   4072    4076    4081 1       1.13070000e+02    5.03000480e+02
   4072    4076    4105 1       1.13070000e+02    5.03000480e+02
   4073    4072    4074 1       1.07730000e+02    2.99574400e+02
   4073    4072    4075 1       1.07730000e+02    2.99574400e+02
   4073    4072    4076 1       1.10530000e+02    3.60326080e+02
   4074    4072    4075 1       1.07730000e+02    2.99574400e+02
   4074    4072    4076 1       1.10530000e+02    3.60326080e+02
   4075    4072    4076 1       1.10530000e+02    3.60326080e+02
   4076    4077    4078 1       1.10530000e+02    3.60326080e+02
   4076    4077    4079 1       1.10530000e+02    3.60326080e+02
   4076    4077    4080 1       1.10530000e+02    3.60326080e+02
   4076    4081    4082 1       1.10210000e+02    5.31033280e+02
   4076    4081    4102 1       1.21870000e+02    5.06012960e+02
   4076    4105    4104 1       1.10210000e+02    5.31033280e+02
   4076    4105    4106 1       1.21870000e+02    5.06012960e+02
   4077    4076    4081 1       1.13070000e+02    5.03000480e+02
   4077    4076    4105 1       1.13070000e+02    5.03000480e+02
   4078    4077    4079 1       1.07730000e+02    2.99574400e+02
   4078    4077    4080 1       1.07730000e+02    2.99574400e+02
   4079    4077    4080 1       1.07730000e+02    2.99574400e+02
   4081    4076    4105 1       1.12520000e+02    5.08021280e+02
   4081    4082    4083 1       1.18410000e+02    5.33794720e+02
   4081    4082    4104 1       1.21100000e+02    5.12958400e+02
   4081    4102    4101 1       1.20020000e+02    5.32790560e+02
   4081    4102    4103 1       1.19880000e+02    3.75723200e+02
   4082    4081    4102 1       1.20730000e+02    5.29945440e+02
   4082    4083    4084 1       1.19820000e+02    3.74300640e+02
   4082    4083    4085 1       1.20730000e+02    5.29945440e+02
   4082    4104    4105 1       1.21100000e+02    5.12958400e+02
   4082    4104    4139 1       1.21100000e+02    5.12958400e+02
   4083    4082    4104 1       1.21100000e+02    5.12958400e+02
   4083    4085    4086 1       1.20640000e+02    5.08439680e+02
   4083    4085    4101 1       1.20020000e+02    5.32790560e+02
   4084    4083    4085 1       1.19880000e+02    3.75723200e+02
   4085    4086    4087 1       1.14530000e+02    3.58485120e+02
   4085    4086    4088 1       1.16810000e+02    4.91368960e+02
   4085    4086    4096 1       1.24830000e+02    4.77729120e+02
   4085    4101    4088 1       1.20640000e+02    5.08439680e+02
   4085    4101    4102 1       1.20020000e+02    5.32790560e+02
   4086    4085    4101 1       1.20640000e+02    5.08439680e+02
   4086    4088    4089 1       1.14760000e+02    3.49364000e+02
   4086    4088    4090 1       1.22490000e+02    4.75804480e+02
   4086    4088    4101 1       1.16810000e+02    4.91368960e+02
   4086    4096    4094 1       9.60300000e+01    5.40070720e+02
   4086    4096    4097 1       1.12000000e+02    3.56811520e+02
   4086    4096    4098 1       1.03090000e+02    5.20322240e+02
   4087    4086    4088 1       1.14760000e+02    3.49364000e+02
   4087    4086    4096 1       1.13690000e+02    3.54217440e+02
   4088    4086    4096 1       1.22490000e+02    4.75804480e+02
   4088    4090    4091 1       1.12000000e+02    3.56811520e+02
   4088    4090    4092 1       9.60300000e+01    5.40070720e+02
   4088    4090    4098 1       1.03090000e+02    5.20322240e+02
   4088    4101    4102 1       1.20640000e+02    5.08439680e+02
   4089    4088    4090 1       1.13690000e+02    3.54217440e+02
   4089    4088    4101 1       1.14530000e+02    3.58485120e+02
   4090    4088    4101 1       1.24830000e+02    4.77729120e+02
   4090    4092    1986 1       1.24830000e+02    4.77729120e+02
   4090    4092    4093 1       1.13690000e+02    3.54217440e+02
   4090    4092    4094 1       1.22490000e+02    4.75804480e+02
   4090    4098    4096 1       1.03830000e+02    5.17477120e+02
   4090    4098    4099 1       1.11170000e+02    3.56895200e+02
   4090    4098    4100 1       1.11170000e+02    3.56895200e+02
   4091    4090    4098 1       1.11170000e+02    3.56895200e+02
   4092    4090    4091 1       1.12000000e+02    3.56811520e+02
   4092    4094    4095 1       1.14760000e+02    3.49364000e+02
   4094    4092    4093 1       1.14760000e+02    3.49364000e+02
   4094    4096    4097 1       1.12000000e+02    3.56811520e+02
   4096    4094    1985 1       1.24830000e+02    4.77729120e+02
   4096    4094    4092 1       1.22490000e+02    4.75804480e+02
   4096    4094    4095 1       1.13690000e+02    3.54217440e+02
   4096    4098    4099 1       1.11170000e+02    3.56895200e+02
   4096    4098    4100 1       1.11170000e+02    3.56895200e+02
   4097    4096    4098 1       1.11170000e+02    3.56895200e+02
   4098    4090    4092 1       1.03090000e+02    5.20322240e+02
   4098    4096    4094 1       1.03090000e+02    5.20322240e+02
   4099    4098    4100 1       1.07220000e+02    3.00494880e+02
   4101    4102    4103 1       1.19880000e+02    3.75723200e+02
   4104    4105    4106 1       1.20730000e+02    5.29945440e+02
   4104    4139    4138 1       1.20730000e+02    5.29945440e+02
   4104    4139    4140 1       1.19820000e+02    3.74300640e+02
   4105    4104    4139 1       1.18410000e+02    5.33794720e+02
   4105    4106    4107 1       1.19880000e+02    3.75723200e+02
   4105    4106    4108 1       1.20020000e+02    5.32790560e+02
   4106    4108    4109 1       1.20640000e+02    5.08439680e+02
   4106    4108    4138 1       1.20020000e+02    5.32790560e+02
   4107    4106    4108 1       1.19880000e+02    3.75723200e+02
   4108    4109    4110 1       1.14530000e+02    3.58485120e+02
   4108    4109    4111 1       1.16810000e+02    4.91368960e+02
   4108    4109    4133 1       1.24830000e+02    4.77729120e+02
   4108    4138    4111 1       1.20640000e+02    5.08439680e+02
   4108    4138    4139 1       1.20020000e+02    5.32790560e+02
   4109    4108    4138 1       1.20640000e+02    5.08439680e+02
   4109    4111    4112 1       1.14760000e+02    3.49364000e+02
   4109    4111    4113 1       1.22490000e+02    4.75804480e+02
   4109    4111    4138 1       1.16810000e+02    4.91368960e+02
   4109    4133    4131 1       9.60300000e+01    5.40070720e+02
   4109    4133    4134 1       1.12000000e+02    3.56811520e+02
   4109    4133    4135 1       1.03090000e+02    5.20322240e+02
   4110    4109    4111 1       1.14760000e+02    3.49364000e+02
   4110    4109    4133 1       1.13690000e+02    3.54217440e+02
   4111    4109    4133 1       1.22490000e+02    4.75804480e+02
   4111    4113    4114 1       1.12000000e+02    3.56811520e+02
   4111    4113    4115 1       9.60300000e+01    5.40070720e+02
   4111    4113    4135 1       1.03090000e+02    5.20322240e+02
   4111    4138    4139 1       1.20640000e+02    5.08439680e+02
   4112    4111    4113 1       1.13690000e+02    3.54217440e+02
   4112    4111    4138 1       1.14530000e+02    3.58485120e+02
   4113    4111    4138 1       1.24830000e+02    4.77729120e+02
   4113    4115    4116 1       1.13690000e+02    3.54217440e+02
   4113    4115    4117 1       1.24830000e+02    4.77729120e+02
   4113    4115    4131 1       1.22490000e+02    4.75804480e+02
   4113    4135    4133 1       1.03830000e+02    5.17477120e+02
   4113    4135    4136 1       1.11170000e+02    3.56895200e+02
   4113    4135    4137 1       1.11170000e+02    3.56895200e+02
   4114    4113    4115 1       1.12000000e+02    3.56811520e+02
   4114    4113    4135 1       1.11170000e+02    3.56895200e+02
   4115    4113    4135 1       1.03090000e+02    5.20322240e+02
   4115    4117    4118 1       1.20640000e+02    5.08439680e+02
   4115    4117    4126 1       1.20640000e+02    5.08439680e+02
   4115    4131    4118 1       1.16810000e+02    4.91368960e+02
   4115    4131    4132 1       1.14760000e+02    3.49364000e+02
   4115    4131    4133 1       1.22490000e+02    4.75804480e+02
   4116    4115    4117 1       1.14530000e+02    3.58485120e+02
   4116    4115    4131 1       1.14760000e+02    3.49364000e+02
   4117    4115    4131 1       1.16810000e+02    4.91368960e+02
   4117    4118    4119 1       1.20020000e+02    5.32790560e+02
   4117    4118    4131 1       1.20640000e+02    5.08439680e+02
   4117    4126    4125 1       1.20020000e+02    5.32790560e+02
   4117    4126    4127 1       1.20830000e+02    5.08272320e+02
   4118    4117    4126 1       1.20020000e+02    5.32790560e+02
   4118    4119    4120 1       1.20830000e+02    5.08272320e+02
   4118    4119    4124 1       1.20020000e+02    5.32790560e+02
   4118    4131    4132 1       1.14530000e+02    3.58485120e+02
   4118    4131    4133 1       1.24830000e+02    4.77729120e+02
   4119    4118    4131 1       1.20640000e+02    5.08439680e+02
   4119    4120    4121 1       1.10630000e+02    3.64928480e+02
   4119    4120    4122 1       1.10630000e+02    3.64928480e+02
   4119    4120    4123 1       1.10630000e+02    3.64928480e+02
   4119    4124    2438 1       1.20640000e+02    5.08439680e+02
   4119    4124    4125 1       1.20020000e+02    5.32790560e+02
   4120    4119    4124 1       1.20830000e+02    5.08272320e+02
   4121    4120    4122 1       1.07730000e+02    2.99574400e+02
   4121    4120    4123 1       1.07730000e+02    2.99574400e+02
   4122    4120    4123 1       1.07730000e+02    2.99574400e+02
   4124    2438    2436 1       1.16810000e+02    4.91368960e+02
   4124    2438    2439 1       1.14530000e+02    3.58485120e+02
   4124    4125    2436 1       1.20640000e+02    5.08439680e+02
   4124    4125    4126 1       1.20020000e+02    5.32790560e+02
   4125    2436    2437 1       1.14530000e+02    3.58485120e+02
   4125    2436    2438 1       1.16810000e+02    4.91368960e+02
   4125    4124    2438 1       1.20640000e+02    5.08439680e+02
   4126    4125    2436 1       1.20640000e+02    5.08439680e+02
   4126    4127    4128 1       1.10630000e+02    3.64928480e+02
   4126    4127    4129 1       1.10630000e+02    3.64928480e+02
   4126    4127    4130 1       1.10630000e+02    3.64928480e+02
   4127    4126    4125 1       1.20830000e+02    5.08272320e+02
   4128    4127    4129 1       1.07730000e+02    2.99574400e+02
   4128    4127    4130 1       1.07730000e+02    2.99574400e+02
   4129    4127    4130 1       1.07730000e+02    2.99574400e+02
   4131    4133    4134 1       1.12000000e+02    3.56811520e+02
   4131    4133    4135 1       1.03090000e+02    5.20322240e+02
   4132    4131    4133 1       1.13690000e+02    3.54217440e+02
   4133    4135    4136 1       1.11170000e+02    3.56895200e+02
   4133    4135    4137 1       1.11170000e+02    3.56895200e+02
   4134    4133    4135 1       1.11170000e+02    3.56895200e+02
   4136    4135    4137 1       1.07220000e+02    3.00494880e+02
   4138    4139    4140 1       1.19880000e+02    3.75723200e+02
   4141    4145    4146 1       1.10280000e+02    5.05761920e+02
   4141    4145    4150 1       1.13070000e+02    5.03000480e+02
   4141    4145    4174 1       1.13070000e+02    5.03000480e+02
   4142    4141    4143 1       1.07730000e+02    2.99574400e+02
   4142    4141    4144 1       1.07730000e+02    2.99574400e+02
   4142    4141    4145 1       1.10530000e+02    3.60326080e+02
   4143    4141    4144 1       1.07730000e+02    2.99574400e+02
   4143    4141    4145 1       1.10530000e+02    3.60326080e+02
   4144    4141    4145 1       1.10530000e+02    3.60326080e+02
   4145    4146    4147 1       1.10530000e+02    3.60326080e+02
   4145    4146    4148 1       1.10530000e+02    3.60326080e+02
   4145    4146    4149 1       1.10530000e+02    3.60326080e+02
   4145    4150    4151 1       1.10210000e+02    5.31033280e+02
   4145    4150    4171 1       1.21870000e+02    5.06012960e+02
   4145    4174    4173 1       1.10210000e+02    5.31033280e+02
   4145    4174    4175 1       1.21870000e+02    5.06012960e+02
   4146    4145    4150 1       1.13070000e+02    5.03000480e+02
   4146    4145    4174 1       1.13070000e+02    5.03000480e+02
   4147    4146    4148 1       1.07730000e+02    2.99574400e+02
   4147    4146    4149 1       1.07730000e+02    2.99574400e+02
   4148    4146    4149 1       1.07730000e+02    2.99574400e+02
   4150    4145    4174 1       1.12520000e+02    5.08021280e+02
   4150    4151    4152 1       1.18410000e+02    5.33794720e+02
   4150    4151    4173 1       1.21100000e+02    5.12958400e+02
   4150    4171    4170 1       1.20020000e+02    5.32790560e+02
   4150    4171    4172 1       1.19880000e+02    3.75723200e+02
   4151    4150    4171 1       1.20730000e+02    5.29945440e+02
   4151    4152    4153 1       1.19820000e+02    3.74300640e+02
   4151    4152    4154 1       1.20730000e+02    5.29945440e+02
   4151    4173    4174 1       1.21100000e+02    5.12958400e+02
   4151    4173    4208 1       1.21100000e+02    5.12958400e+02
   4152    4151    4173 1       1.21100000e+02    5.12958400e+02
   4152    4154    4155 1       1.20640000e+02    5.08439680e+02
   4152    4154    4170 1       1.20020000e+02    5.32790560e+02
   4153    4152    4154 1       1.19880000e+02    3.75723200e+02
   4154    4155    4156 1       1.14530000e+02    3.58485120e+02
   4154    4155    4157 1       1.16810000e+02    4.91368960e+02
   4154    4155    4165 1       1.24830000e+02    4.77729120e+02
   4154    4170    4157 1       1.20640000e+02    5.08439680e+02
   4154    4170    4171 1       1.20020000e+02    5.32790560e+02
   4155    4154    4170 1       1.20640000e+02    5.08439680e+02
   4155    4157    4158 1       1.14760000e+02    3.49364000e+02
   4155    4157    4159 1       1.22490000e+02    4.75804480e+02
   4155    4157    4170 1       1.16810000e+02    4.91368960e+02
   4155    4165    4163 1       9.60300000e+01    5.40070720e+02
   4155    4165    4166 1       1.12000000e+02    3.56811520e+02
   4155    4165    4167 1       1.03090000e+02    5.20322240e+02
   4156    4155    4157 1       1.14760000e+02    3.49364000e+02
   4156    4155    4165 1       1.13690000e+02    3.54217440e+02
   4157    4155    4165 1       1.22490000e+02    4.75804480e+02
   4157    4159    4160 1       1.12000000e+02    3.56811520e+02
   4157    4159    4161 1       9.60300000e+01    5.40070720e+02
   4157    4159    4167 1       1.03090000e+02    5.20322240e+02
   4157    4170    4171 1       1.20640000e+02    5.08439680e+02
   4158    4157    4159 1       1.13690000e+02    3.54217440e+02
   4158    4157    4170 1       1.14530000e+02    3.58485120e+02
   4159    4157    4170 1       1.24830000e+02    4.77729120e+02
   4159    4161    1088 1       1.24830000e+02    4.77729120e+02
   4159    4161    4162 1       1.13690000e+02    3.54217440e+02
   4159    4161    4163 1       1.22490000e+02    4.75804480e+02
   4159    4167    4165 1       1.03830000e+02    5.17477120e+02
   4159    4167    4168 1       1.11170000e+02    3.56895200e+02
   4159    4167    4169 1       1.11170000e+02    3.56895200e+02
   4160    4159    4167 1       1.11170000e+02    3.56895200e+02
   4161    4159    4160 1       1.12000000e+02    3.56811520e+02
   4161    4163    4164 1       1.14760000e+02    3.49364000e+02
   4163    4161    4162 1       1.14760000e+02    3.49364000e+02
   4163    4165    4166 1       1.12000000e+02    3.56811520e+02
   4165    4163    1089 1       1.24830000e+02    4.77729120e+02
   4165    4163    4161 1       1.22490000e+02    4.75804480e+02
   4165    4163    4164 1       1.13690000e+02    3.54217440e+02
   4165    4167    4168 1       1.11170000e+02    3.56895200e+02
   4165    4167    4169 1       1.11170000e+02    3.56895200e+02
   4166    4165    4167 1       1.11170000e+02    3.56895200e+02
   4167    4159    4161 1       1.03090000e+02    5.20322240e+02
   4167    4165    4163 1       1.03090000e+02    5.20322240e+02
   4168    4167    4169 1       1.07220000e+02    3.00494880e+02
   4170    4171    4172 1       1.19880000e+02    3.75723200e+02
   4173    4174    4175 1       1.20730000e+02    5.29945440e+02
   4173    4208    4207 1       1.20730000e+02    5.29945440e+02
   4173    4208    4209 1       1.19820000e+02    3.74300640e+02
   4174    4173    4208 1       1.18410000e+02    5.33794720e+02
   4174    4175    4176 1       1.19880000e+02    3.75723200e+02
   4174    4175    4177 1       1.20020000e+02    5.32790560e+02
   4175    4177    4178 1       1.20640000e+02    5.08439680e+02
   4175    4177    4207 1       1.20020000e+02    5.32790560e+02
   4176    4175    4177 1       1.19880000e+02    3.75723200e+02
   4177    4178    4179 1       1.14530000e+02    3.58485120e+02
   4177    4178    4180 1       1.16810000e+02    4.91368960e+02
   4177    4178    4202 1       1.24830000e+02    4.77729120e+02
   4177    4207    4180 1       1.20640000e+02    5.08439680e+02
   4177    4207    4208 1       1.20020000e+02    5.32790560e+02
   4178    4177    4207 1       1.20640000e+02    5.08439680e+02
   4178    4180    4181 1       1.14760000e+02    3.49364000e+02
   4178    4180    4182 1       1.22490000e+02    4.75804480e+02
   4178    4180    4207 1       1.16810000e+02    4.91368960e+02
   4178    4202    4200 1       9.60300000e+01    5.40070720e+02
   4178    4202    4203 1       1.12000000e+02    3.56811520e+02
   4178    4202    4204 1       1.03090000e+02    5.20322240e+02
   4179    4178    4180 1       1.14760000e+02    3.49364000e+02
   4179    4178    4202 1       1.13690000e+02    3.54217440e+02
   4180    4178    4202 1       1.22490000e+02    4.75804480e+02
   4180    4182    4183 1       1.12000000e+02    3.56811520e+02
   4180    4182    4184 1       9.60300000e+01    5.40070720e+02
   4180    4182    4204 1       1.03090000e+02    5.20322240e+02
   4180    4207    4208 1       1.20640000e+02    5.08439680e+02
   4181    4180    4182 1       1.13690000e+02    3.54217440e+02
   4181    4180    4207 1       1.14530000e+02    3.58485120e+02
   4182    4180    4207 1       1.24830000e+02    4.77729120e+02
   4182    4184    4185 1       1.13690000e+02    3.54217440e+02
   4182    4184    4186 1       1.24830000e+02    4.77729120e+02
   4182    4184    4200 1       1.22490000e+02    4.75804480e+02
   4182    4204    4202 1       1.03830000e+02    5.17477120e+02
   4182    4204    4205 1       1.11170000e+02    3.56895200e+02
   4182    4204    4206 1       1.11170000e+02    3.56895200e+02
   4183    4182    4184 1       1.12000000e+02    3.56811520e+02
   4183    4182    4204 1       1.11170000e+02    3.56895200e+02
   4184    4182    4204 1       1.03090000e+02    5.20322240e+02
   4184    4186    4187 1       1.20640000e+02    5.08439680e+02
   4184    4186    4195 1       1.20640000e+02    5.08439680e+02
   4184    4200    4187 1       1.16810000e+02    4.91368960e+02
   4184    4200    4201 1       1.14760000e+02    3.49364000e+02
   4184    4200    4202 1       1.22490000e+02    4.75804480e+02
   4185    4184    4186 1       1.14530000e+02    3.58485120e+02
   4185    4184    4200 1       1.14760000e+02    3.49364000e+02
   4186    4184    4200 1       1.16810000e+02    4.91368960e+02
   4186    4187    4188 1       1.20020000e+02    5.32790560e+02
   4186    4187    4200 1       1.20640000e+02    5.08439680e+02
   4186    4195    4194 1       1.20020000e+02    5.32790560e+02
   4186    4195    4196 1       1.20830000e+02    5.08272320e+02
   4187    4186    4195 1       1.20020000e+02    5.32790560e+02
   4187    4188    4189 1       1.20830000e+02    5.08272320e+02
   4187    4188    4193 1       1.20020000e+02    5.32790560e+02
   4187    4200    4201 1       1.14530000e+02    3.58485120e+02
   4187    4200    4202 1       1.24830000e+02    4.77729120e+02
   4188    4187    4200 1       1.20640000e+02    5.08439680e+02
   4188    4189    4190 1       1.10630000e+02    3.64928480e+02
   4188    4189    4191 1       1.10630000e+02    3.64928480e+02
   4188    4189    4192 1       1.10630000e+02    3.64928480e+02
   4188    4193    2781 1       1.20640000e+02    5.08439680e+02
   4188    4193    4194 1       1.20020000e+02    5.32790560e+02
   4189    4188    4193 1       1.20830000e+02    5.08272320e+02
   4190    4189    4191 1       1.07730000e+02    2.99574400e+02
   4190    4189    4192 1       1.07730000e+02    2.99574400e+02
   4191    4189    4192 1       1.07730000e+02    2.99574400e+02
   4193    2781    2782 1       1.14530000e+02    3.58485120e+02
   4193    2781    2783 1       1.16810000e+02    4.91368960e+02
   4193    4194    2783 1       1.20640000e+02    5.08439680e+02
   4193    4194    4195 1       1.20020000e+02    5.32790560e+02
   4194    2783    2781 1       1.16810000e+02    4.91368960e+02
   4194    2783    2784 1       1.14530000e+02    3.58485120e+02
   4194    4193    2781 1       1.20640000e+02    5.08439680e+02
   4195    4194    2783 1       1.20640000e+02    5.08439680e+02
   4195    4196    4197 1       1.10630000e+02    3.64928480e+02
   4195    4196    4198 1       1.10630000e+02    3.64928480e+02
   4195    4196    4199 1       1.10630000e+02    3.64928480e+02
   4196    4195    4194 1       1.20830000e+02    5.08272320e+02
   4197    4196    4198 1       1.07730000e+02    2.99574400e+02
   4197    4196    4199 1       1.07730000e+02    2.99574400e+02
   4198    4196    4199 1       1.07730000e+02    2.99574400e+02
   4200    4202    4203 1       1.12000000e+02    3.56811520e+02
   4200    4202    4204 1       1.03090000e+02    5.20322240e+02
   4201    4200    4202 1       1.13690000e+02    3.54217440e+02
   4202    4204    4205 1       1.11170000e+02    3.56895200e+02
   4202    4204    4206 1       1.11170000e+02    3.56895200e+02
   4203    4202    4204 1       1.11170000e+02    3.56895200e+02
   4205    4204    4206 1       1.07220000e+02    3.00494880e+02
   4207    4208    4209 1       1.19880000e+02    3.75723200e+02
   4210    4214    4215 1       1.10280000e+02    5.05761920e+02
   4210    4214    4219 1       1.13070000e+02    5.03000480e+02
   4210    4214    4243 1       1.13070000e+02    5.03000480e+02
   4211    4210    4212 1       1.07730000e+02    2.99574400e+02
   4211    4210    4213 1       1.07730000e+02    2.99574400e+02
   4211    4210    4214 1       1.10530000e+02    3.60326080e+02
   4212    4210    4213 1       1.07730000e+02    2.99574400e+02
   4212    4210    4214 1       1.10530000e+02    3.60326080e+02
   4213    4210    4214 1       1.10530000e+02    3.60326080e+02
   4214    4215    4216 1       1.10530000e+02    3.60326080e+02
   4214    4215    4217 1       1.10530000e+02    3.60326080e+02
   4214    4215    4218 1       1.10530000e+02    3.60326080e+02
   4214    4219    4220 1       1.10210000e+02    5.31033280e+02
   4214    4219    4240 1       1.21870000e+02    5.06012960e+02
   4214    4243    4242 1       1.10210000e+02    5.31033280e+02
   4214    4243    4244 1       1.21870000e+02    5.06012960e+02
   4215    4214    4219 1       1.13070000e+02    5.03000480e+02
   4215    4214    4243 1       1.13070000e+02    5.03000480e+02
   4216    4215    4217 1       1.07730000e+02    2.99574400e+02
   4216    4215    4218 1       1.07730000e+02    2.99574400e+02
   4217    4215    4218 1       1.07730000e+02    2.99574400e+02
   4219    4214    4243 1       1.12520000e+02    5.08021280e+02
   4219    4220    4221 1       1.18410000e+02    5.33794720e+02
   4219    4220    4242 1       1.21100000e+02    5.12958400e+02
   4219    4240    4239 1       1.20020000e+02    5.32790560e+02
   4219    4240    4241 1       1.19880000e+02    3.75723200e+02
   4220    4219    4240 1       1.20730000e+02    5.29945440e+02
   4220    4221    4222 1       1.19820000e+02    3.74300640e+02
   4220    4221    4223 1       1.20730000e+02    5.29945440e+02
   4220    4242    4243 1       1.21100000e+02    5.12958400e+02
   4220    4242    4277 1       1.21100000e+02    5.12958400e+02
   4221    4220    4242 1       1.21100000e+02    5.12958400e+02
   4221    4223    4224 1       1.20640000e+02    5.08439680e+02
   4221    4223    4239 1       1.20020000e+02    5.32790560e+02
   4222    4221    4223 1       1.19880000e+02    3.75723200e+02
   4223    4224    4225 1       1.14530000e+02    3.58485120e+02
   4223    4224    4226 1       1.16810000e+02    4.91368960e+02
   4223    4224    4234 1       1.24830000e+02    4.77729120e+02
   4223    4239    4226 1       1.20640000e+02    5.08439680e+02
   4223    4239    4240 1       1.20020000e+02    5.32790560e+02
   4224    4223    4239 1       1.20640000e+02    5.08439680e+02
   4224    4226    4227 1       1.14760000e+02    3.49364000e+02
   4224    4226    4228 1       1.22490000e+02    4.75804480e+02
   4224    4226    4239 1       1.16810000e+02    4.91368960e+02
   4224    4234    4232 1       1.03090000e+02    5.20322240e+02
   4224    4234    4235 1       1.12000000e+02    3.56811520e+02
   4224    4234    4236 1       1.03090000e+02    5.20322240e+02
   4225    4224    4226 1       1.14760000e+02    3.49364000e+02
   4225    4224    4234 1       1.13690000e+02    3.54217440e+02
   4226    4224    4234 1       1.22490000e+02    4.75804480e+02
   4226    4228    4229 1       1.12000000e+02    3.56811520e+02
   4226    4228    4230 1       1.03090000e+02    5.20322240e+02
   4226    4228    4236 1       1.03090000e+02    5.20322240e+02
   4226    4239    4240 1       1.20640000e+02    5.08439680e+02
   4227    4226    4228 1       1.13690000e+02    3.54217440e+02
   4227    4226    4239 1       1.14530000e+02    3.58485120e+02
   4228    4226    4239 1       1.24830000e+02    4.77729120e+02
   4228    4230    4231 1       1.11170000e+02    3.56895200e+02
   4228    4230    4232 1       1.03830000e+02    5.17477120e+02
   4228    4236    4234 1       1.03830000e+02    5.17477120e+02
   4228    4236    4237 1       1.11170000e+02    3.56895200e+02
   4228    4236    4238 1       1.11170000e+02    3.56895200e+02
   4229    4228    4230 1       1.11170000e+02    3.56895200e+02
   4229    4228    4236 1       1.11170000e+02    3.56895200e+02
   4230    4228    4236 1       1.03830000e+02    5.17477120e+02
   4230    4232    4233 1       1.11170000e+02    3.56895200e+02
   4230    4232    4234 1       1.03830000e+02    5.17477120e+02
   4231    4230    4232 1       1.11170000e+02    3.56895200e+02
   4232    4234    4235 1       1.11170000e+02    3.56895200e+02
   4232    4234    4236 1       1.03830000e+02    5.17477120e+02
   4233    4232    4234 1       1.11170000e+02    3.56895200e+02
   4234    4236    4237 1       1.11170000e+02    3.56895200e+02
   4234    4236    4238 1       1.11170000e+02    3.56895200e+02
   4235    4234    4236 1       1.11170000e+02    3.56895200e+02
   4237    4236    4238 1       1.07220000e+02    3.00494880e+02
   4239    4240    4241 1       1.19880000e+02    3.75723200e+02
   4242    4243    4244 1       1.20730000e+02    5.29945440e+02
   4242    4277    4276 1       1.20730000e+02    5.29945440e+02
   4242    4277    4278 1       1.19820000e+02    3.74300640e+02
   4243    4242    4277 1       1.18410000e+02    5.33794720e+02
   4243    4244    4245 1       1.19880000e+02    3.75723200e+02
   4243    4244    4246 1       1.20020000e+02    5.32790560e+02
   4244    4246    4247 1       1.20640000e+02    5.08439680e+02
   4244    4246    4276 1       1.20020000e+02    5.32790560e+02
   4245    4244    4246 1       1.19880000e+02    3.75723200e+02
   4246    4247    4248 1       1.14530000e+02    3.58485120e+02
   4246    4247    4249 1       1.16810000e+02    4.91368960e+02
   4246    4247    4271 1       1.24830000e+02    4.77729120e+02
   4246    4276    4249 1       1.20640000e+02    5.08439680e+02
   4246    4276    4277 1       1.20020000e+02    5.32790560e+02
   4247    4246    4276 1       1.20640000e+02    5.08439680e+02
   4247    4249    4250 1       1.14760000e+02    3.49364000e+02
   4247    4249    4251 1       1.22490000e+02    4.75804480e+02
   4247    4249    4276 1       1.16810000e+02    4.91368960e+02
   4247    4271    4269 1       9.60300000e+01    5.40070720e+02
   4247    4271    4272 1       1.12000000e+02    3.56811520e+02
   4247    4271    4273 1       1.03090000e+02    5.20322240e+02
   4248    4247    4249 1       1.14760000e+02    3.49364000e+02
   4248    4247    4271 1       1.13690000e+02    3.54217440e+02
   4249    4247    4271 1       1.22490000e+02    4.75804480e+02
   4249    4251    4252 1       1.12000000e+02    3.56811520e+02
   4249    4251    4253 1       9.60300000e+01    5.40070720e+02
   4249    4251    4273 1       1.03090000e+02    5.20322240e+02
   4249    4276    4277 1       1.20640000e+02    5.08439680e+02
   4250    4249    4251 1       1.13690000e+02    3.54217440e+02
   4250    4249    4276 1       1.14530000e+02    3.58485120e+02
   4251    4249    4276 1       1.24830000e+02    4.77729120e+02
   4251    4253    4254 1       1.13690000e+02    3.54217440e+02
   4251    4253    4255 1       1.24830000e+02    4.77729120e+02
   4251    4253    4269 1       1.22490000e+02    4.75804480e+02
   4251    4273    4271 1       1.03830000e+02    5.17477120e+02
   4251    4273    4274 1       1.11170000e+02    3.56895200e+02
   4251    4273    4275 1       1.11170000e+02    3.56895200e+02
   4252    4251    4253 1       1.12000000e+02    3.56811520e+02
   4252    4251    4273 1       1.11170000e+02    3.56895200e+02
   4253    4251    4273 1       1.03090000e+02    5.20322240e+02
   4253    4255    4256 1       1.20640000e+02    5.08439680e+02
   4253    4255    4264 1       1.20640000e+02    5.08439680e+02
   4253    4269    4256 1       1.16810000e+02    4.91368960e+02
   4253    4269    4270 1       1.14760000e+02    3.49364000e+02
   4253    4269    4271 1       1.22490000e+02    4.75804480e+02
   4254    4253    4255 1       1.14530000e+02    3.58485120e+02
   4254    4253    4269 1       1.14760000e+02    3.49364000e+02
   4255    4253    4269 1       1.16810000e+02    4.91368960e+02
   4255    4256    4257 1       1.20020000e+02    5.32790560e+02
   4255    4256    4269 1       1.20640000e+02    5.08439680e+02
   4255    4264    4263 1       1.20020000e+02    5.32790560e+02
   4255    4264    4265 1       1.20830000e+02    5.08272320e+02
   4256    4255    4264 1       1.20020000e+02    5.32790560e+02
   4256    4257    4258 1       1.20830000e+02    5.08272320e+02
   4256    4257    4262 1       1.20020000e+02    5.32790560e+02
   4256    4269    4270 1       1.14530000e+02    3.58485120e+02
   4256    4269    4271 1       1.24830000e+02    4.77729120e+02
   4257    4256    4269 1       1.20640000e+02    5.08439680e+02
   4257    4258    4259 1       1.10630000e+02    3.64928480e+02
   4257    4258    4260 1       1.10630000e+02    3.64928480e+02
   4257    4258    4261 1       1.10630000e+02    3.64928480e+02
   4257    4262     713 1       1.20640000e+02    5.08439680e+02
   4257    4262    4263 1       1.20020000e+02    5.32790560e+02
   4258    4257    4262 1       1.20830000e+02    5.08272320e+02
   4259    4258    4260 1       1.07730000e+02    2.99574400e+02
   4259    4258    4261 1       1.07730000e+02    2.99574400e+02
   4260    4258    4261 1       1.07730000e+02    2.99574400e+02
   4262     713     711 1       1.16810000e+02    4.91368960e+02
   4262     713     714 1       1.14530000e+02    3.58485120e+02
   4262    4263     711 1       1.20640000e+02    5.08439680e+02
   4262    4263    4264 1       1.20020000e+02    5.32790560e+02
   4263     711     712 1       1.14530000e+02    3.58485120e+02
   4263     711     713 1       1.16810000e+02    4.91368960e+02
   4263    4262     713 1       1.20640000e+02    5.08439680e+02
   4264    4263     711 1       1.20640000e+02    5.08439680e+02
   4264    4265    4266 1       1.10630000e+02    3.64928480e+02
   4264    4265    4267 1       1.10630000e+02    3.64928480e+02
   4264    4265    4268 1       1.10630000e+02    3.64928480e+02
   4265    4264    4263 1       1.20830000e+02    5.08272320e+02
   4266    4265    4267 1       1.07730000e+02    2.99574400e+02
   4266    4265    4268 1       1.07730000e+02    2.99574400e+02
   4267    4265    4268 1       1.07730000e+02    2.99574400e+02
   4269    4271    4272 1       1.12000000e+02    3.56811520e+02
   4269    4271    4273 1       1.03090000e+02    5.20322240e+02
   4270    4269    4271 1       1.13690000e+02    3.54217440e+02
   4271    4273    4274 1       1.11170000e+02    3.56895200e+02
   4271    4273    4275 1       1.11170000e+02    3.56895200e+02
   4272    4271    4273 1       1.11170000e+02    3.56895200e+02
   4274    4273    4275 1       1.07220000e+02    3.00494880e+02
   4276    4277    4278 1       1.19880000e+02    3.75723200e+02
   4279    4283    4284 1       1.10280000e+02    5.05761920e+02
   4279    4283    4288 1       1.13070000e+02    5.03000480e+02
   4279    4283    4312 1       1.13070000e+02    5.03000480e+02
   4280    4279    4281 1       1.07730000e+02    2.99574400e+02
   4280    4279    4282 1       1.07730000e+02    2.99574400e+02
   4280    4279    4283 1       1.10530000e+02    3.60326080e+02
   4281    4279    4282 1       1.07730000e+02    2.99574400e+02
   4281    4279    4283 1       1.10530000e+02    3.60326080e+02
   4282    4279    4283 1       1.10530000e+02    3.60326080e+02
   4283    4284    4285 1       1.10530000e+02    3.60326080e+02
   4283    4284    4286 1       1.10530000e+02    3.60326080e+02
   4283    4284    4287 1       1.10530000e+02    3.60326080e+02
   4283    4288    4289 1       1.10210000e+02    5.31033280e+02
   4283    4288    4309 1       1.21870000e+02    5.06012960e+02
   4283    4312    4311 1       1.10210000e+02    5.31033280e+02
   4283    4312    4313 1       1.21870000e+02    5.06012960e+02
   4284    4283    4288 1       1.13070000e+02    5.03000480e+02
   4284    4283    4312 1       1.13070000e+02    5.03000480e+02
   4285    4284    4286 1       1.07730000e+02    2.99574400e+02
   4285    4284    4287 1       1.07730000e+02    2.99574400e+02
   4286    4284    4287 1       1.07730000e+02    2.99574400e+02
   4288    4283    4312 1       1.12520000e+02    5.08021280e+02
   4288    4289    4290 1       1.18410000e+02    5.33794720e+02
   4288    4289    4311 1       1.21100000e+02    5.12958400e+02
   4288    4309    4308 1       1.20020000e+02    5.32790560e+02
   4288    4309    4310 1       1.19880000e+02    3.75723200e+02
   4289    4288    4309 1       1.20730000e+02    5.29945440e+02
   4289    4290    4291 1       1.19820000e+02    3.74300640e+02
   4289    4290    4292 1       1.20730000e+02    5.29945440e+02
   4289    4311    4312 1       1.21100000e+02    5.12958400e+02
   4289    4311    4346 1       1.21100000e+02    5.12958400e+02
   4290    4289    4311 1       1.21100000e+02    5.12958400e+02
   4290    4292    4293 1       1.20640000e+02    5.08439680e+02
   4290    4292    4308 1       1.20020000e+02    5.32790560e+02
   4291    4290    4292 1       1.19880000e+02    3.75723200e+02
   4292    4293    4294 1       1.14530000e+02    3.58485120e+02
   4292    4293    4295 1       1.16810000e+02    4.91368960e+02
   4292    4293    4303 1       1.24830000e+02    4.77729120e+02
   4292    4308    4295 1       1.20640000e+02    5.08439680e+02
   4292    4308    4309 1       1.20020000e+02    5.32790560e+02
   4293    4292    4308 1       1.20640000e+02    5.08439680e+02
   4293    4295    4296 1       1.14760000e+02    3.49364000e+02
   4293    4295    4297 1       1.22490000e+02    4.75804480e+02
   4293    4295    4308 1       1.16810000e+02    4.91368960e+02
   4293    4303    4301 1       9.60300000e+01    5.40070720e+02
   4293    4303    4304 1       1.12000000e+02    3.56811520e+02
   4293    4303    4305 1       1.03090000e+02    5.20322240e+02
   4294    4293    4295 1       1.14760000e+02    3.49364000e+02
   4294    4293    4303 1       1.13690000e+02    3.54217440e+02
   4295    4293    4303 1       1.22490000e+02    4.75804480e+02
   4295    4297    4298 1       1.12000000e+02    3.56811520e+02
   4295    4297    4299 1       9.60300000e+01    5.40070720e+02
   4295    4297    4305 1       1.03090000e+02    5.20322240e+02
   4295    4308    4309 1       1.20640000e+02    5.08439680e+02
   4296    4295    4297 1       1.13690000e+02    3.54217440e+02
   4296    4295    4308 1       1.14530000e+02    3.58485120e+02
   4297    4295    4308 1       1.24830000e+02    4.77729120e+02
   4297    4299    1434 1       1.24830000e+02    4.77729120e+02
   4297    4299    4300 1       1.13690000e+02    3.54217440e+02
   4297    4299    4301 1       1.22490000e+02    4.75804480e+02
   4297    4305    4303 1       1.03830000e+02    5.17477120e+02
   4297    4305    4306 1       1.11170000e+02    3.56895200e+02
   4297    4305    4307 1       1.11170000e+02    3.56895200e+02
   4298    4297    4305 1       1.11170000e+02    3.56895200e+02
   4299    4297    4298 1       1.12000000e+02    3.56811520e+02
   4299    4301    4302 1       1.14760000e+02    3.49364000e+02
   4301    4299    4300 1       1.14760000e+02    3.49364000e+02
   4301    4303    4304 1       1.12000000e+02    3.56811520e+02
   4303    4301    1433 1       1.24830000e+02    4.77729120e+02
   4303    4301    4299 1       1.22490000e+02    4.75804480e+02
   4303    4301    4302 1       1.13690000e+02    3.54217440e+02
   4303    4305    4306 1       1.11170000e+02    3.56895200e+02
   4303    4305    4307 1       1.11170000e+02    3.56895200e+02
   4304    4303    4305 1       1.11170000e+02    3.56895200e+02
   4305    4297    4299 1       1.03090000e+02    5.20322240e+02
   4305    4303    4301 1       1.03090000e+02    5.20322240e+02
   4306    4305    4307 1       1.07220000e+02    3.00494880e+02
   4308    4309    4310 1       1.19880000e+02    3.75723200e+02
   4311    4312    4313 1       1.20730000e+02    5.29945440e+02
   4311    4346    4345 1       1.20730000e+02    5.29945440e+02
   4311    4346    4347 1       1.19820000e+02    3.74300640e+02
   4312    4311    4346 1       1.18410000e+02    5.33794720e+02
   4312    4313    4314 1       1.19880000e+02    3.75723200e+02
   4312    4313    4315 1       1.20020000e+02    5.32790560e+02
   4313    4315    4316 1       1.20640000e+02    5.08439680e+02
   4313    4315    4345 1       1.20020000e+02    5.32790560e+02
   4314    4313    4315 1       1.19880000e+02    3.75723200e+02
   4315    4316    4317 1       1.14530000e+02    3.58485120e+02
   4315    4316    4318 1       1.16810000e+02    4.91368960e+02
   4315    4316    4340 1       1.24830000e+02    4.77729120e+02
   4315    4345    4318 1       1.20640000e+02    5.08439680e+02
   4315    4345    4346 1       1.20020000e+02    5.32790560e+02
   4316    4315    4345 1       1.20640000e+02    5.08439680e+02
   4316    4318    4319 1       1.14760000e+02    3.49364000e+02
   4316    4318    4320 1       1.22490000e+02    4.75804480e+02
   4316    4318    4345 1       1.16810000e+02    4.91368960e+02
   4316    4340    4338 1       9.60300000e+01    5.40070720e+02
   4316    4340    4341 1       1.12000000e+02    3.56811520e+02
   4316    4340    4342 1       1.03090000e+02    5.20322240e+02
   4317    4316    4318 1       1.14760000e+02    3.49364000e+02
   4317    4316    4340 1       1.13690000e+02    3.54217440e+02
   4318    4316    4340 1       1.22490000e+02    4.75804480e+02
   4318    4320    4321 1       1.12000000e+02    3.56811520e+02
   4318    4320    4322 1       9.60300000e+01    5.40070720e+02
   4318    4320    4342 1       1.03090000e+02    5.20322240e+02
   4318    4345    4346 1       1.20640000e+02    5.08439680e+02
   4319    4318    4320 1       1.13690000e+02    3.54217440e+02
   4319    4318    4345 1       1.14530000e+02    3.58485120e+02
   4320    4318    4345 1       1.24830000e+02    4.77729120e+02
   4320    4322    4323 1       1.13690000e+02    3.54217440e+02
   4320    4322    4324 1       1.24830000e+02    4.77729120e+02
   4320    4322    4338 1       1.22490000e+02    4.75804480e+02
   4320    4342    4340 1       1.03830000e+02    5.17477120e+02
   4320    4342    4343 1       1.11170000e+02    3.56895200e+02
   4320    4342    4344 1       1.11170000e+02    3.56895200e+02
   4321    4320    4322 1       1.12000000e+02    3.56811520e+02
   4321    4320    4342 1       1.11170000e+02    3.56895200e+02
   4322    4320    4342 1       1.03090000e+02    5.20322240e+02
   4322    4324    4325 1       1.20640000e+02    5.08439680e+02
   4322    4324    4333 1       1.20640000e+02    5.08439680e+02
   4322    4338    4325 1       1.16810000e+02    4.91368960e+02
   4322    4338    4339 1       1.14760000e+02    3.49364000e+02
   4322    4338    4340 1       1.22490000e+02    4.75804480e+02
   4323    4322    4324 1       1.14530000e+02    3.58485120e+02
   4323    4322    4338 1       1.14760000e+02    3.49364000e+02
   4324    4322    4338 1       1.16810000e+02    4.91368960e+02
   4324    4325    4326 1       1.20020000e+02    5.32790560e+02
   4324    4325    4338 1       1.20640000e+02    5.08439680e+02
   4324    4333    4332 1       1.20020000e+02    5.32790560e+02
   4324    4333    4334 1       1.20830000e+02    5.08272320e+02
   4325    4324    4333 1       1.20020000e+02    5.32790560e+02
   4325    4326    4327 1       1.20830000e+02    5.08272320e+02
   4325    4326    4331 1       1.20020000e+02    5.32790560e+02
   4325    4338    4339 1       1.14530000e+02    3.58485120e+02
   4325    4338    4340 1       1.24830000e+02    4.77729120e+02
   4326    4325    4338 1       1.20640000e+02    5.08439680e+02
   4326    4327    4328 1       1.10630000e+02    3.64928480e+02
   4326    4327    4329 1       1.10630000e+02    3.64928480e+02
   4326    4327    4330 1       1.10630000e+02    3.64928480e+02
   4326    4331    4332 1       1.20020000e+02    5.32790560e+02
   4326    4331    4989 1       1.20640000e+02    5.08439680e+02
   4327    4326    4331 1       1.20830000e+02    5.08272320e+02
   4328    4327    4329 1       1.07730000e+02    2.99574400e+02
   4328    4327    4330 1       1.07730000e+02    2.99574400e+02
   4329    4327    4330 1       1.07730000e+02    2.99574400e+02
   4331    4332    4333 1       1.20020000e+02    5.32790560e+02
   4331    4332    4991 1       1.20640000e+02    5.08439680e+02
   4331    4989    4990 1       1.14530000e+02    3.58485120e+02
   4331    4989    4991 1       1.16810000e+02    4.91368960e+02
   4332    4331    4989 1       1.20640000e+02    5.08439680e+02
   4332    4991    4989 1       1.16810000e+02    4.91368960e+02
   4332    4991    4992 1       1.14530000e+02    3.58485120e+02
   4333    4332    4991 1       1.20640000e+02    5.08439680e+02
   4333    4334    4335 1       1.10630000e+02    3.64928480e+02
   4333    4334    4336 1       1.10630000e+02    3.64928480e+02
   4333    4334    4337 1       1.10630000e+02    3.64928480e+02
   4334    4333    4332 1       1.20830000e+02    5.08272320e+02
   4335    4334    4336 1       1.07730000e+02    2.99574400e+02
   4335    4334    4337 1       1.07730000e+02    2.99574400e+02
   4336    4334    4337 1       1.07730000e+02    2.99574400e+02
   4338    4340    4341 1       1.12000000e+02    3.56811520e+02
   4338    4340    4342 1       1.03090000e+02    5.20322240e+02
   4339    4338    4340 1       1.13690000e+02    3.54217440e+02
   4340    4342    4343 1       1.11170000e+02    3.56895200e+02
   4340    4342    4344 1       1.11170000e+02    3.56895200e+02
   4341    4340    4342 1       1.11170000e+02    3.56895200e+02
   4343    4342    4344 1       1.07220000e+02    3.00494880e+02
   4345    4346    4347 1       1.19880000e+02    3.75723200e+02
   4348    4352    4353 1       1.10280000e+02    5.05761920e+02
   4348    4352    4357 1       1.13070000e+02    5.03000480e+02
   4348    4352    4381 1       1.13070000e+02    5.03000480e+02
   4349    4348    4350 1       1.07730000e+02    2.99574400e+02
   4349    4348    4351 1       1.07730000e+02    2.99574400e+02
   4349    4348    4352 1       1.10530000e+02    3.60326080e+02
   4350    4348    4351 1       1.07730000e+02    2.99574400e+02
   4350    4348    4352 1       1.10530000e+02    3.60326080e+02
   4351    4348    4352 1       1.10530000e+02    3.60326080e+02
   4352    4353    4354 1       1.10530000e+02    3.60326080e+02
   4352    4353    4355 1       1.10530000e+02    3.60326080e+02
   4352    4353    4356 1       1.10530000e+02    3.60326080e+02
   4352    4357    4358 1       1.10210000e+02    5.31033280e+02
   4352    4357    4378 1       1.21870000e+02    5.06012960e+02
   4352    4381    4380 1       1.10210000e+02    5.31033280e+02
   4352    4381    4382 1       1.21870000e+02    5.06012960e+02
   4353    4352    4357 1       1.13070000e+02    5.03000480e+02
   4353    4352    4381 1       1.13070000e+02    5.03000480e+02
   4354    4353    4355 1       1.07730000e+02    2.99574400e+02
   4354    4353    4356 1       1.07730000e+02    2.99574400e+02
   4355    4353    4356 1       1.07730000e+02    2.99574400e+02
   4357    4352    4381 1       1.12520000e+02    5.08021280e+02
   4357    4358    4359 1       1.18410000e+02    5.33794720e+02
   4357    4358    4380 1       1.21100000e+02    5.12958400e+02
   4357    4378    4377 1       1.20020000e+02    5.32790560e+02
   4357    4378    4379 1       1.19880000e+02    3.75723200e+02
   4358    4357    4378 1       1.20730000e+02    5.29945440e+02
   4358    4359    4360 1       1.19820000e+02    3.74300640e+02
   4358    4359    4361 1       1.20730000e+02    5.29945440e+02
   4358    4380    4381 1       1.21100000e+02    5.12958400e+02
   4358    4380    4415 1       1.21100000e+02    5.12958400e+02
   4359    4358    4380 1       1.21100000e+02    5.12958400e+02
   4359    4361    4362 1       1.20640000e+02    5.08439680e+02
   4359    4361    4377 1       1.20020000e+02    5.32790560e+02
   4360    4359    4361 1       1.19880000e+02    3.75723200e+02
   4361    4362    4363 1       1.14530000e+02    3.58485120e+02
   4361    4362    4364 1       1.16810000e+02    4.91368960e+02
   4361    4362    4372 1       1.24830000e+02    4.77729120e+02
   4361    4377    4364 1       1.20640000e+02    5.08439680e+02
   4361    4377    4378 1       1.20020000e+02    5.32790560e+02
   4362    4361    4377 1       1.20640000e+02    5.08439680e+02
   4362    4364    4365 1       1.14760000e+02    3.49364000e+02
   4362    4364    4366 1       1.22490000e+02    4.75804480e+02
   4362    4364    4377 1       1.16810000e+02    4.91368960e+02
   4362    4372    4370 1       9.60300000e+01    5.40070720e+02
   4362    4372    4373 1       1.12000000e+02    3.56811520e+02
   4362    4372    4374 1       1.03090000e+02    5.20322240e+02
   4363    4362    4364 1       1.14760000e+02    3.49364000e+02
   4363    4362    4372 1       1.13690000e+02    3.54217440e+02
   4364    4362    4372 1       1.22490000e+02    4.75804480e+02
   4364    4366    4367 1       1.12000000e+02    3.56811520e+02
   4364    4366    4368 1       9.60300000e+01    5.40070720e+02
   4364    4366    4374 1       1.03090000e+02    5.20322240e+02
   4364    4377    4378 1       1.20640000e+02    5.08439680e+02
   4365    4364    4366 1       1.13690000e+02    3.54217440e+02
   4365    4364    4377 1       1.14530000e+02    3.58485120e+02
   4366    4364    4377 1       1.24830000e+02    4.77729120e+02
   4366    4368     330 1       1.24830000e+02    4.77729120e+02
   4366    4368    4369 1       1.13690000e+02    3.54217440e+02
   4366    4368    4370 1       1.22490000e+02    4.75804480e+02
   4366    4374    4372 1       1.03830000e+02    5.17477120e+02
   4366    4374    4375 1       1.11170000e+02    3.56895200e+02
   4366    4374    4376 1       1.11170000e+02    3.56895200e+02
   4367    4366    4374 1       1.11170000e+02    3.56895200e+02
   4368    4366    4367 1       1.12000000e+02    3.56811520e+02
   4368    4370    4371 1       1.14760000e+02    3.49364000e+02
   4370    4368    4369 1       1.14760000e+02    3.49364000e+02
   4370    4372    4373 1       1.12000000e+02    3.56811520e+02
   4372    4370     329 1       1.24830000e+02    4.77729120e+02
   4372    4370    4368 1       1.22490000e+02    4.75804480e+02
   4372    4370    4371 1       1.13690000e+02    3.54217440e+02
   4372    4374    4375 1       1.11170000e+02    3.56895200e+02
   4372    4374    4376 1       1.11170000e+02    3.56895200e+02
   4373    4372    4374 1       1.11170000e+02    3.56895200e+02
   4374    4366    4368 1       1.03090000e+02    5.20322240e+02
   4374    4372    4370 1       1.03090000e+02    5.20322240e+02
   4375    4374    4376 1       1.07220000e+02    3.00494880e+02
   4377    4378    4379 1       1.19880000e+02    3.75723200e+02
   4380    4381    4382 1       1.20730000e+02    5.29945440e+02
   4380    4415    4414 1       1.20730000e+02    5.29945440e+02
   4380    4415    4416 1       1.19820000e+02    3.74300640e+02
   4381    4380    4415 1       1.18410000e+02    5.33794720e+02
   4381    4382    4383 1       1.19880000e+02    3.75723200e+02
   4381    4382    4384 1       1.20020000e+02    5.32790560e+02
   4382    4384    4385 1       1.20640000e+02    5.08439680e+02
   4382    4384    4414 1       1.20020000e+02    5.32790560e+02
   4383    4382    4384 1       1.19880000e+02    3.75723200e+02
   4384    4385    4386 1       1.14530000e+02    3.58485120e+02
   4384    4385    4387 1       1.16810000e+02    4.91368960e+02
   4384    4385    4409 1       1.24830000e+02    4.77729120e+02
   4384    4414    4387 1       1.20640000e+02    5.08439680e+02
   4384    4414    4415 1       1.20020000e+02    5.32790560e+02
   4385    4384    4414 1       1.20640000e+02    5.08439680e+02
   4385    4387    4388 1       1.14760000e+02    3.49364000e+02
   4385    4387    4389 1       1.22490000e+02    4.75804480e+02
   4385    4387    4414 1       1.16810000e+02    4.91368960e+02
   4385    4409    4407 1       9.60300000e+01    5.40070720e+02
   4385    4409    4410 1       1.12000000e+02    3.56811520e+02
   4385    4409    4411 1       1.03090000e+02    5.20322240e+02
   4386    4385    4387 1       1.14760000e+02    3.49364000e+02
   4386    4385    4409 1       1.13690000e+02    3.54217440e+02
   4387    4385    4409 1       1.22490000e+02    4.75804480e+02
   4387    4389    4390 1       1.12000000e+02    3.56811520e+02
   4387    4389    4391 1       9.60300000e+01    5.40070720e+02
   4387    4389    4411 1       1.03090000e+02    5.20322240e+02
   4387    4414    4415 1       1.20640000e+02    5.08439680e+02
   4388    4387    4389 1       1.13690000e+02    3.54217440e+02
   4388    4387    4414 1       1.14530000e+02    3.58485120e+02
   4389    4387    4414 1       1.24830000e+02    4.77729120e+02
   4389    4391    4392 1       1.13690000e+02    3.54217440e+02
   4389    4391    4393 1       1.24830000e+02    4.77729120e+02
   4389    4391    4407 1       1.22490000e+02    4.75804480e+02
   4389    4411    4409 1       1.03830000e+02    5.17477120e+02
   4389    4411    4412 1       1.11170000e+02    3.56895200e+02
   4389    4411    4413 1       1.11170000e+02    3.56895200e+02
   4390    4389    4391 1       1.12000000e+02    3.56811520e+02
   4390    4389    4411 1       1.11170000e+02    3.56895200e+02
   4391    4389    4411 1       1.03090000e+02    5.20322240e+02
   4391    4393    4394 1       1.20640000e+02    5.08439680e+02
   4391    4393    4402 1       1.20640000e+02    5.08439680e+02
   4391    4407    4394 1       1.16810000e+02    4.91368960e+02
   4391    4407    4408 1       1.14760000e+02    3.49364000e+02
   4391    4407    4409 1       1.22490000e+02    4.75804480e+02
   4392    4391    4393 1       1.14530000e+02    3.58485120e+02
   4392    4391    4407 1       1.14760000e+02    3.49364000e+02
   4393    4391    4407 1       1.16810000e+02    4.91368960e+02
   4393    4394    4395 1       1.20020000e+02    5.32790560e+02
   4393    4394    4407 1       1.20640000e+02    5.08439680e+02
   4393    4402    4401 1       1.20020000e+02    5.32790560e+02
   4393    4402    4403 1       1.20830000e+02    5.08272320e+02
   4394    4393    4402 1       1.20020000e+02    5.32790560e+02
   4394    4395    4396 1       1.20830000e+02    5.08272320e+02
   4394    4395    4400 1       1.20020000e+02    5.32790560e+02
   4394    4407    4408 1       1.14530000e+02    3.58485120e+02
   4394    4407    4409 1       1.24830000e+02    4.77729120e+02
   4395    4394    4407 1       1.20640000e+02    5.08439680e+02
   4395    4396    4397 1       1.10630000e+02    3.64928480e+02
   4395    4396    4398 1       1.10630000e+02    3.64928480e+02
   4395    4396    4399 1       1.10630000e+02    3.64928480e+02
   4395    4400    4401 1       1.20020000e+02    5.32790560e+02
   4395    4400    6093 1       1.20640000e+02    5.08439680e+02
   4396    4395    4400 1       1.20830000e+02    5.08272320e+02
   4397    4396    4398 1       1.07730000e+02    2.99574400e+02
   4397    4396    4399 1       1.07730000e+02    2.99574400e+02
   4398    4396    4399 1       1.07730000e+02    2.99574400e+02
   4400    4401    4402 1       1.20020000e+02    5.32790560e+02
   4400    4401    6095 1       1.20640000e+02    5.08439680e+02
   4400    6093    6094 1       1.14530000e+02    3.58485120e+02
   4400    6093    6095 1       1.16810000e+02    4.91368960e+02
   4401    4400    6093 1       1.20640000e+02    5.08439680e+02
   4401    6095    6093 1       1.16810000e+02    4.91368960e+02
   4401    6095    6096 1       1.14530000e+02    3.58485120e+02
   4402    4401    6095 1       1.20640000e+02    5.08439680e+02
   4402    4403    4404 1       1.10630000e+02    3.64928480e+02
   4402    4403    4405 1       1.10630000e+02    3.64928480e+02
   4402    4403    4406 1       1.10630000e+02    3.64928480e+02
   4403    4402    4401 1       1.20830000e+02    5.08272320e+02
   4404    4403    4405 1       1.07730000e+02    2.99574400e+02
   4404    4403    4406 1       1.07730000e+02    2.99574400e+02
   4405    4403    4406 1       1.07730000e+02    2.99574400e+02
   4407    4409    4410 1       1.12000000e+02    3.56811520e+02
   4407    4409    4411 1       1.03090000e+02    5.20322240e+02
   4408    4407    4409 1       1.13690000e+02    3.54217440e+02
   4409    4411    4412 1       1.11170000e+02    3.56895200e+02
   4409    4411    4413 1       1.11170000e+02    3.56895200e+02
   4410    4409    4411 1       1.11170000e+02    3.56895200e+02
   4412    4411    4413 1       1.07220000e+02    3.00494880e+02
   4414    4415    4416 1       1.19880000e+02    3.75723200e+02
   4417    4421    4422 1       1.10280000e+02    5.05761920e+02
   4417    4421    4426 1       1.13070000e+02    5.03000480e+02
   4417    4421    4450 1       1.13070000e+02    5.03000480e+02
   4418    4417    4419 1       1.07730000e+02    2.99574400e+02
   4418    4417    4420 1       1.07730000e+02    2.99574400e+02
   4418    4417    4421 1       1.10530000e+02    3.60326080e+02
   4419    4417    4420 1       1.07730000e+02    2.99574400e+02
   4419    4417    4421 1       1.10530000e+02    3.60326080e+02
   4420    4417    4421 1       1.10530000e+02    3.60326080e+02
   4421    4422    4423 1       1.10530000e+02    3.60326080e+02
   4421    4422    4424 1       1.10530000e+02    3.60326080e+02
   4421    4422    4425 1       1.10530000e+02    3.60326080e+02
   4421    4426    4427 1       1.10210000e+02    5.31033280e+02
   4421    4426    4447 1       1.21870000e+02    5.06012960e+02
   4421    4450    4449 1       1.10210000e+02    5.31033280e+02
   4421    4450    4451 1       1.21870000e+02    5.06012960e+02
   4422    4421    4426 1       1.13070000e+02    5.03000480e+02
   4422    4421    4450 1       1.13070000e+02    5.03000480e+02
   4423    4422    4424 1       1.07730000e+02    2.99574400e+02
   4423    4422    4425 1       1.07730000e+02    2.99574400e+02
   4424    4422    4425 1       1.07730000e+02    2.99574400e+02
   4426    4421    4450 1       1.12520000e+02    5.08021280e+02
   4426    4427    4428 1       1.18410000e+02    5.33794720e+02
   4426    4427    4449 1       1.21100000e+02    5.12958400e+02
   4426    4447    4446 1       1.20020000e+02    5.32790560e+02
   4426    4447    4448 1       1.19880000e+02    3.75723200e+02
   4427    4426    4447 1       1.20730000e+02    5.29945440e+02
   4427    4428    4429 1       1.19820000e+02    3.74300640e+02
   4427    4428    4430 1       1.20730000e+02    5.29945440e+02
   4427    4449    4450 1       1.21100000e+02    5.12958400e+02
   4427    4449    4484 1       1.21100000e+02    5.12958400e+02
   4428    4427    4449 1       1.21100000e+02    5.12958400e+02
   4428    4430    4431 1       1.20640000e+02    5.08439680e+02
   4428    4430    4446 1       1.20020000e+02    5.32790560e+02
   4429    4428    4430 1       1.19880000e+02    3.75723200e+02
   4430    4431    4432 1       1.14530000e+02    3.58485120e+02
   4430    4431    4433 1       1.16810000e+02    4.91368960e+02
   4430    4431    4441 1       1.24830000e+02    4.77729120e+02
   4430    4446    4433 1       1.20640000e+02    5.08439680e+02
   4430    4446    4447 1       1.20020000e+02    5.32790560e+02
   4431    4430    4446 1       1.20640000e+02    5.08439680e+02
   4431    4433    4434 1       1.14760000e+02    3.49364000e+02
   4431    4433    4435 1       1.22490000e+02    4.75804480e+02
   4431    4433    4446 1       1.16810000e+02    4.91368960e+02
   4431    4441    4439 1       9.60300000e+01    5.40070720e+02
   4431    4441    4442 1       1.12000000e+02    3.56811520e+02
   4431    4441    4443 1       1.03090000e+02    5.20322240e+02
   4432    4431    4433 1       1.14760000e+02    3.49364000e+02
   4432    4431    4441 1       1.13690000e+02    3.54217440e+02
   4433    4431    4441 1       1.22490000e+02    4.75804480e+02
   4433    4435    4436 1       1.12000000e+02    3.56811520e+02
   4433    4435    4437 1       9.60300000e+01    5.40070720e+02
   4433    4435    4443 1       1.03090000e+02    5.20322240e+02
   4433    4446    4447 1       1.20640000e+02    5.08439680e+02
   4434    4433    4435 1       1.13690000e+02    3.54217440e+02
   4434    4433    4446 1       1.14530000e+02    3.58485120e+02
   4435    4433    4446 1       1.24830000e+02    4.77729120e+02
   4435    4437    4438 1       1.13690000e+02    3.54217440e+02
   4435    4437    4439 1       1.22490000e+02    4.75804480e+02
   4435    4437    5987 1       1.24830000e+02    4.77729120e+02
   4435    4443    4441 1       1.03830000e+02    5.17477120e+02
   4435    4443    4444 1       1.11170000e+02    3.56895200e+02
   4435    4443    4445 1       1.11170000e+02    3.56895200e+02
   4436    4435    4443 1       1.11170000e+02    3.56895200e+02
   4437    4435    4436 1       1.12000000e+02    3.56811520e+02
   4437    4439    4440 1       1.14760000e+02    3.49364000e+02
   4439    4437    4438 1       1.14760000e+02    3.49364000e+02
   4439    4441    4442 1       1.12000000e+02    3.56811520e+02
   4441    4439    4437 1       1.22490000e+02    4.75804480e+02
   4441    4439    4440 1       1.13690000e+02    3.54217440e+02
   4441    4439    5988 1       1.24830000e+02    4.77729120e+02
   4441    4443    4444 1       1.11170000e+02    3.56895200e+02
   4441    4443    4445 1       1.11170000e+02    3.56895200e+02
   4442    4441    4443 1       1.11170000e+02    3.56895200e+02
   4443    4435    4437 1       1.03090000e+02    5.20322240e+02
   4443    4441    4439 1       1.03090000e+02    5.20322240e+02
   4444    4443    4445 1       1.07220000e+02    3.00494880e+02
   4446    4447    4448 1       1.19880000e+02    3.75723200e+02
   4449    4450    4451 1       1.20730000e+02    5.29945440e+02
   4449    4484    4483 1       1.20730000e+02    5.29945440e+02
   4449    4484    4485 1       1.19820000e+02    3.74300640e+02
   4450    4449    4484 1       1.18410000e+02    5.33794720e+02
   4450    4451    4452 1       1.19880000e+02    3.75723200e+02
   4450    4451    4453 1       1.20020000e+02    5.32790560e+02
   4451    4453    4454 1       1.20640000e+02    5.08439680e+02
   4451    4453    4483 1       1.20020000e+02    5.32790560e+02
   4452    4451    4453 1       1.19880000e+02    3.75723200e+02
   4453    4454    4455 1       1.14530000e+02    3.58485120e+02
   4453    4454    4456 1       1.16810000e+02    4.91368960e+02
   4453    4454    4478 1       1.24830000e+02    4.77729120e+02
   4453    4483    4456 1       1.20640000e+02    5.08439680e+02
   4453    4483    4484 1       1.20020000e+02    5.32790560e+02
   4454    4453    4483 1       1.20640000e+02    5.08439680e+02
   4454    4456    4457 1       1.14760000e+02    3.49364000e+02
   4454    4456    4458 1       1.22490000e+02    4.75804480e+02
   4454    4456    4483 1       1.16810000e+02    4.91368960e+02
   4454    4478    4476 1       9.60300000e+01    5.40070720e+02
   4454    4478    4479 1       1.12000000e+02    3.56811520e+02
   4454    4478    4480 1       1.03090000e+02    5.20322240e+02
   4455    4454    4456 1       1.14760000e+02    3.49364000e+02
   4455    4454    4478 1       1.13690000e+02    3.54217440e+02
   4456    4454    4478 1       1.22490000e+02    4.75804480e+02
   4456    4458    4459 1       1.12000000e+02    3.56811520e+02
   4456    4458    4460 1       9.60300000e+01    5.40070720e+02
   4456    4458    4480 1       1.03090000e+02    5.20322240e+02
   4456    4483    4484 1       1.20640000e+02    5.08439680e+02
   4457    4456    4458 1       1.13690000e+02    3.54217440e+02
   4457    4456    4483 1       1.14530000e+02    3.58485120e+02
   4458    4456    4483 1       1.24830000e+02    4.77729120e+02
   4458    4460    4461 1       1.13690000e+02    3.54217440e+02
   4458    4460    4462 1       1.24830000e+02    4.77729120e+02
   4458    4460    4476 1       1.22490000e+02    4.75804480e+02
   4458    4480    4478 1       1.03830000e+02    5.17477120e+02
   4458    4480    4481 1       1.11170000e+02    3.56895200e+02
   4458    4480    4482 1       1.11170000e+02    3.56895200e+02
   4459    4458    4460 1       1.12000000e+02    3.56811520e+02
   4459    4458    4480 1       1.11170000e+02    3.56895200e+02
   4460    4458    4480 1       1.03090000e+02    5.20322240e+02
   4460    4462    4463 1       1.20640000e+02    5.08439680e+02
   4460    4462    4471 1       1.20640000e+02    5.08439680e+02
   4460    4476    4463 1       1.16810000e+02    4.91368960e+02
   4460    4476    4477 1       1.14760000e+02    3.49364000e+02
   4460    4476    4478 1       1.22490000e+02    4.75804480e+02
   4461    4460    4462 1       1.14530000e+02    3.58485120e+02
   4461    4460    4476 1       1.14760000e+02    3.49364000e+02
   4462    4460    4476 1       1.16810000e+02    4.91368960e+02
   4462    4463    4464 1       1.20020000e+02    5.32790560e+02
   4462    4463    4476 1       1.20640000e+02    5.08439680e+02
   4462    4471    4470 1       1.20020000e+02    5.32790560e+02
   4462    4471    4472 1       1.20830000e+02    5.08272320e+02
   4463    4462    4471 1       1.20020000e+02    5.32790560e+02
   4463    4464    4465 1       1.20830000e+02    5.08272320e+02
   4463    4464    4469 1       1.20020000e+02    5.32790560e+02
   4463    4476    4477 1       1.14530000e+02    3.58485120e+02
   4463    4476    4478 1       1.24830000e+02    4.77729120e+02
   4464    4463    4476 1       1.20640000e+02    5.08439680e+02
   4464    4465    4466 1       1.10630000e+02    3.64928480e+02
   4464    4465    4467 1       1.10630000e+02    3.64928480e+02
   4464    4465    4468 1       1.10630000e+02    3.64928480e+02
   4464    4469    4470 1       1.20020000e+02    5.32790560e+02
   4464    4469    5405 1       1.20640000e+02    5.08439680e+02
   4465    4464    4469 1       1.20830000e+02    5.08272320e+02
   4466    4465    4467 1       1.07730000e+02    2.99574400e+02
   4466    4465    4468 1       1.07730000e+02    2.99574400e+02
   4467    4465    4468 1       1.07730000e+02    2.99574400e+02
   4469    4470    4471 1       1.20020000e+02    5.32790560e+02
   4469    4470    5403 1       1.20640000e+02    5.08439680e+02
   4469    5405    5403 1       1.16810000e+02    4.91368960e+02
   4469    5405    5406 1       1.14530000e+02    3.58485120e+02
   4470    4469    5405 1       1.20640000e+02    5.08439680e+02
   4470    5403    5404 1       1.14530000e+02    3.58485120e+02
   4470    5403    5405 1       1.16810000e+02    4.91368960e+02
   4471    4470    5403 1       1.20640000e+02    5.08439680e+02
   4471    4472    4473 1       1.10630000e+02    3.64928480e+02
   4471    4472    4474 1       1.10630000e+02    3.64928480e+02
   4471    4472    4475 1       1.10630000e+02    3.64928480e+02
   4472    4471    4470 1       1.20830000e+02    5.08272320e+02
   4473    4472    4474 1       1.07730000e+02    2.99574400e+02
   4473    4472    4475 1       1.07730000e+02    2.99574400e+02
   4474    4472    4475 1       1.07730000e+02    2.99574400e+02
   4476    4478    4479 1       1.12000000e+02    3.56811520e+02
   4476    4478    4480 1       1.03090000e+02    5.20322240e+02
   4477    4476    4478 1       1.13690000e+02    3.54217440e+02
   4478    4480    4481 1       1.11170000e+02    3.56895200e+02
   4478    4480    4482 1       1.11170000e+02    3.56895200e+02
   4479    4478    4480 1       1.11170000e+02    3.56895200e+02
   4481    4480    4482 1       1.07220000e+02    3.00494880e+02
   4483    4484    4485 1       1.19880000e+02    3.75723200e+02
   4486    4490    4491 1       1.10280000e+02    5.05761920e+02
   4486    4490    4495 1       1.13070000e+02    5.03000480e+02
   4486    4490    4519 1       1.13070000e+02    5.03000480e+02
   4487    4486    4488 1       1.07730000e+02    2.99574400e+02
   4487    4486    4489 1       1.07730000e+02    2.99574400e+02
   4487    4486    4490 1       1.10530000e+02    3.60326080e+02
   4488    4486    4489 1       1.07730000e+02    2.99574400e+02
   4488    4486    4490 1       1.10530000e+02    3.60326080e+02
   4489    4486    4490 1       1.10530000e+02    3.60326080e+02
   4490    4491    4492 1       1.10530000e+02    3.60326080e+02
   4490    4491    4493 1       1.10530000e+02    3.60326080e+02
   4490    4491    4494 1       1.10530000e+02    3.60326080e+02
   4490    4495    4496 1       1.10210000e+02    5.31033280e+02
   4490    4495    4516 1       1.21870000e+02    5.06012960e+02
   4490    4519    4518 1       1.10210000e+02    5.31033280e+02
   4490    4519    4520 1       1.21870000e+02    5.06012960e+02
   4491    4490    4495 1       1.13070000e+02    5.03000480e+02
   4491    4490    4519 1       1.13070000e+02    5.03000480e+02
   4492    4491    4493 1       1.07730000e+02    2.99574400e+02
   4492    4491    4494 1       1.07730000e+02    2.99574400e+02
   4493    4491    4494 1       1.07730000e+02    2.99574400e+02
   4495    4490    4519 1       1.12520000e+02    5.08021280e+02
   4495    4496    4497 1       1.18410000e+02    5.33794720e+02
   4495    4496    4518 1       1.21100000e+02    5.12958400e+02
   4495    4516    4515 1       1.20020000e+02    5.32790560e+02
   4495    4516    4517 1       1.19880000e+02    3.75723200e+02
   4496    4495    4516 1       1.20730000e+02    5.29945440e+02
   4496    4497    4498 1       1.19820000e+02    3.74300640e+02
   4496    4497    4499 1       1.20730000e+02    5.29945440e+02
   4496    4518    4519 1       1.21100000e+02    5.12958400e+02
   4496    4518    4553 1       1.21100000e+02    5.12958400e+02
   4497    4496    4518 1       1.21100000e+02    5.12958400e+02
   4497    4499    4500 1       1.20640000e+02    5.08439680e+02
   4497    4499    4515 1       1.20020000e+02    5.32790560e+02
   4498    4497    4499 1       1.19880000e+02    3.75723200e+02
   4499    4500    4501 1       1.14530000e+02    3.58485120e+02
   4499    4500    4502 1       1.16810000e+02    4.91368960e+02
   4499    4500    4510 1       1.24830000e+02    4.77729120e+02
   4499    4515    4502 1       1.20640000e+02    5.08439680e+02
   4499    4515    4516 1       1.20020000e+02    5.32790560e+02
   4500    4499    4515 1       1.20640000e+02    5.08439680e+02
   4500    4502    4503 1       1.14760000e+02    3.49364000e+02
   4500    4502    4504 1       1.22490000e+02    4.75804480e+02
   4500    4502    4515 1       1.16810000e+02    4.91368960e+02
   4500    4510    4508 1       9.60300000e+01    5.40070720e+02
   4500    4510    4511 1       1.12000000e+02    3.56811520e+02
   4500    4510    4512 1       1.03090000e+02    5.20322240e+02
   4501    4500    4502 1       1.14760000e+02    3.49364000e+02
   4501    4500    4510 1       1.13690000e+02    3.54217440e+02
   4502    4500    4510 1       1.22490000e+02    4.75804480e+02
   4502    4504    4505 1       1.12000000e+02    3.56811520e+02
   4502    4504    4506 1       9.60300000e+01    5.40070720e+02
   4502    4504    4512 1       1.03090000e+02    5.20322240e+02
   4502    4515    4516 1       1.20640000e+02    5.08439680e+02
   4503    4502    4504 1       1.13690000e+02    3.54217440e+02
   4503    4502    4515 1       1.14530000e+02    3.58485120e+02
   4504    4502    4515 1       1.24830000e+02    4.77729120e+02
   4504    4506    4507 1       1.13690000e+02    3.54217440e+02
   4504    4506    4508 1       1.22490000e+02    4.75804480e+02
   4504    4506    6401 1       1.24830000e+02    4.77729120e+02
   4504    4512    4510 1       1.03830000e+02    5.17477120e+02
   4504    4512    4513 1       1.11170000e+02    3.56895200e+02
   4504    4512    4514 1       1.11170000e+02    3.56895200e+02
   4505    4504    4512 1       1.11170000e+02    3.56895200e+02
   4506    4504    4505 1       1.12000000e+02    3.56811520e+02
   4506    4508    4509 1       1.14760000e+02    3.49364000e+02
   4508    4506    4507 1       1.14760000e+02    3.49364000e+02
   4508    4510    4511 1       1.12000000e+02    3.56811520e+02
   4510    4508    4506 1       1.22490000e+02    4.75804480e+02
   4510    4508    4509 1       1.13690000e+02    3.54217440e+02
   4510    4508    6402 1       1.24830000e+02    4.77729120e+02
   4510    4512    4513 1       1.11170000e+02    3.56895200e+02
   4510    4512    4514 1       1.11170000e+02    3.56895200e+02
   4511    4510    4512 1       1.11170000e+02    3.56895200e+02
   4512    4504    4506 1       1.03090000e+02    5.20322240e+02
   4512    4510    4508 1       1.03090000e+02    5.20322240e+02
   4513    4512    4514 1       1.07220000e+02    3.00494880e+02
   4515    4516    4517 1       1.19880000e+02    3.75723200e+02
   4518    4519    4520 1       1.20730000e+02    5.29945440e+02
   4518    4553    4552 1       1.20730000e+02    5.29945440e+02
   4518    4553    4554 1       1.19820000e+02    3.74300640e+02
   4519    4518    4553 1       1.18410000e+02    5.33794720e+02
   4519    4520    4521 1       1.19880000e+02    3.75723200e+02
   4519    4520    4522 1       1.20020000e+02    5.32790560e+02
   4520    4522    4523 1       1.20640000e+02    5.08439680e+02
   4520    4522    4552 1       1.20020000e+02    5.32790560e+02
   4521    4520    4522 1       1.19880000e+02    3.75723200e+02
   4522    4523    4524 1       1.14530000e+02    3.58485120e+02
   4522    4523    4525 1       1.16810000e+02    4.91368960e+02
   4522    4523    4547 1       1.24830000e+02    4.77729120e+02
   4522    4552    4525 1       1.20640000e+02    5.08439680e+02
   4522    4552    4553 1       1.20020000e+02    5.32790560e+02
   4523    4522    4552 1       1.20640000e+02    5.08439680e+02
   4523    4525    4526 1       1.14760000e+02    3.49364000e+02
   4523    4525    4527 1       1.22490000e+02    4.75804480e+02
   4523    4525    4552 1       1.16810000e+02    4.91368960e+02
   4523    4547    4545 1       9.60300000e+01    5.40070720e+02
   4523    4547    4548 1       1.12000000e+02    3.56811520e+02
   4523    4547    4549 1       1.03090000e+02    5.20322240e+02
   4524    4523    4525 1       1.14760000e+02    3.49364000e+02
   4524    4523    4547 1       1.13690000e+02    3.54217440e+02
   4525    4523    4547 1       1.22490000e+02    4.75804480e+02
   4525    4527    4528 1       1.12000000e+02    3.56811520e+02
   4525    4527    4529 1       9.60300000e+01    5.40070720e+02
   4525    4527    4549 1       1.03090000e+02    5.20322240e+02
   4525    4552    4553 1       1.20640000e+02    5.08439680e+02
   4526    4525    4527 1       1.13690000e+02    3.54217440e+02
   4526    4525    4552 1       1.14530000e+02    3.58485120e+02
   4527    4525    4552 1       1.24830000e+02    4.77729120e+02
   4527    4529    4530 1       1.13690000e+02    3.54217440e+02
   4527    4529    4531 1       1.24830000e+02    4.77729120e+02
   4527    4529    4545 1       1.22490000e+02    4.75804480e+02
   4527    4549    4547 1       1.03830000e+02    5.17477120e+02
   4527    4549    4550 1       1.11170000e+02    3.56895200e+02
   4527    4549    4551 1       1.11170000e+02    3.56895200e+02
   4528    4527    4529 1       1.12000000e+02    3.56811520e+02
   4528    4527    4549 1       1.11170000e+02    3.56895200e+02
   4529    4527    4549 1       1.03090000e+02    5.20322240e+02
   4529    4531    4532 1       1.20640000e+02    5.08439680e+02
   4529    4531    4540 1       1.20640000e+02    5.08439680e+02
   4529    4545    4532 1       1.16810000e+02    4.91368960e+02
   4529    4545    4546 1       1.14760000e+02    3.49364000e+02
   4529    4545    4547 1       1.22490000e+02    4.75804480e+02
   4530    4529    4531 1       1.14530000e+02    3.58485120e+02
   4530    4529    4545 1       1.14760000e+02    3.49364000e+02
   4531    4529    4545 1       1.16810000e+02    4.91368960e+02
   4531    4532    4533 1       1.20020000e+02    5.32790560e+02
   4531    4532    4545 1       1.20640000e+02    5.08439680e+02
   4531    4540    4539 1       1.20020000e+02    5.32790560e+02
   4531    4540    4541 1       1.20830000e+02    5.08272320e+02
   4532    4531    4540 1       1.20020000e+02    5.32790560e+02
   4532    4533    4534 1       1.20830000e+02    5.08272320e+02
   4532    4533    4538 1       1.20020000e+02    5.32790560e+02
   4532    4545    4546 1       1.14530000e+02    3.58485120e+02
   4532    4545    4547 1       1.24830000e+02    4.77729120e+02
   4533    4532    4545 1       1.20640000e+02    5.08439680e+02
   4533    4534    4535 1       1.10630000e+02    3.64928480e+02
   4533    4534    4536 1       1.10630000e+02    3.64928480e+02
   4533    4534    4537 1       1.10630000e+02    3.64928480e+02
   4533    4538    3402 1       1.20640000e+02    5.08439680e+02
   4533    4538    4539 1       1.20020000e+02    5.32790560e+02
   4534    4533    4538 1       1.20830000e+02    5.08272320e+02
   4535    4534    4536 1       1.07730000e+02    2.99574400e+02
   4535    4534    4537 1       1.07730000e+02    2.99574400e+02
   4536    4534    4537 1       1.07730000e+02    2.99574400e+02
   4538    3402    3403 1       1.14530000e+02    3.58485120e+02
   4538    3402    3404 1       1.16810000e+02    4.91368960e+02
   4538    4539    3404 1       1.20640000e+02    5.08439680e+02
   4538    4539    4540 1       1.20020000e+02    5.32790560e+02
   4539    3404    3402 1       1.16810000e+02    4.91368960e+02
   4539    3404    3405 1       1.14530000e+02    3.58485120e+02
   4539    4538    3402 1       1.20640000e+02    5.08439680e+02
   4540    4539    3404 1       1.20640000e+02    5.08439680e+02
   4540    4541    4542 1       1.10630000e+02    3.64928480e+02
   4540    4541    4543 1       1.10630000e+02    3.64928480e+02
   4540    4541    4544 1       1.10630000e+02    3.64928480e+02
   4541    4540    4539 1       1.20830000e+02    5.08272320e+02
   4542    4541    4543 1       1.07730000e+02    2.99574400e+02
   4542    4541    4544 1       1.07730000e+02    2.99574400e+02
   4543    4541    4544 1       1.07730000e+02    2.99574400e+02
   4545    4547    4548 1       1.12000000e+02    3.56811520e+02
   4545    4547    4549 1       1.03090000e+02    5.20322240e+02
   4546    4545    4547 1       1.13690000e+02    3.54217440e+02
   4547    4549    4550 1       1.11170000e+02    3.56895200e+02
   4547    4549    4551 1       1.11170000e+02    3.56895200e+02
   4548    4547    4549 1       1.11170000e+02    3.56895200e+02
   4550    4549    4551 1       1.07220000e+02    3.00494880e+02
   4552    4553    4554 1       1.19880000e+02    3.75723200e+02
   4555    4559    4560 1       1.10280000e+02    5.05761920e+02
   4555    4559    4564 1       1.13070000e+02    5.03000480e+02
   4555    4559    4588 1       1.13070000e+02    5.03000480e+02
   4556    4555    4557 1       1.07730000e+02    2.99574400e+02
   4556    4555    4558 1       1.07730000e+02    2.99574400e+02
   4556    4555    4559 1       1.10530000e+02    3.60326080e+02
   4557    4555    4558 1       1.07730000e+02    2.99574400e+02
   4557    4555    4559 1       1.10530000e+02    3.60326080e+02
   4558    4555    4559 1       1.10530000e+02    3.60326080e+02
   4559    4560    4561 1       1.10530000e+02    3.60326080e+02
   4559    4560    4562 1       1.10530000e+02    3.60326080e+02
   4559    4560    4563 1       1.10530000e+02    3.60326080e+02
   4559    4564    4565 1       1.10210000e+02    5.31033280e+02
   4559    4564    4585 1       1.21870000e+02    5.06012960e+02
   4559    4588    4587 1       1.10210000e+02    5.31033280e+02
   4559    4588    4589 1       1.21870000e+02    5.06012960e+02
   4560    4559    4564 1       1.13070000e+02    5.03000480e+02
   4560    4559    4588 1       1.13070000e+02    5.03000480e+02
   4561    4560    4562 1       1.07730000e+02    2.99574400e+02
   4561    4560    4563 1       1.07730000e+02    2.99574400e+02
   4562    4560    4563 1       1.07730000e+02    2.99574400e+02
   4564    4559    4588 1       1.12520000e+02    5.08021280e+02
   4564    4565    4566 1       1.18410000e+02    5.33794720e+02
   4564    4565    4587 1       1.21100000e+02    5.12958400e+02
   4564    4585    4584 1       1.20020000e+02    5.32790560e+02
   4564    4585    4586 1       1.19880000e+02    3.75723200e+02
   4565    4564    4585 1       1.20730000e+02    5.29945440e+02
   4565    4566    4567 1       1.19820000e+02    3.74300640e+02
   4565    4566    4568 1       1.20730000e+02    5.29945440e+02
   4565    4587    4588 1       1.21100000e+02    5.12958400e+02
   4565    4587    4622 1       1.21100000e+02    5.12958400e+02
   4566    4565    4587 1       1.21100000e+02    5.12958400e+02
   4566    4568    4569 1       1.20640000e+02    5.08439680e+02
   4566    4568    4584 1       1.20020000e+02    5.32790560e+02
   4567    4566    4568 1       1.19880000e+02    3.75723200e+02
   4568    4569    4570 1       1.14530000e+02    3.58485120e+02
   4568    4569    4571 1       1.16810000e+02    4.91368960e+02
   4568    4569    4579 1       1.24830000e+02    4.77729120e+02
   4568    4584    4571 1       1.20640000e+02    5.08439680e+02
   4568    4584    4585 1       1.20020000e+02    5.32790560e+02
   4569    4568    4584 1       1.20640000e+02    5.08439680e+02
   4569    4571    4572 1       1.14760000e+02    3.49364000e+02
   4569    4571    4573 1       1.22490000e+02    4.75804480e+02
   4569    4571    4584 1       1.16810000e+02    4.91368960e+02
   4569    4579    4577 1       9.60300000e+01    5.40070720e+02
   4569    4579    4580 1       1.12000000e+02    3.56811520e+02
   4569    4579    4581 1       1.03090000e+02    5.20322240e+02
   4570    4569    4571 1       1.14760000e+02    3.49364000e+02
   4570    4569    4579 1       1.13690000e+02    3.54217440e+02
   4571    4569    4579 1       1.22490000e+02    4.75804480e+02
   4571    4573    4574 1       1.12000000e+02    3.56811520e+02
   4571    4573    4575 1       9.60300000e+01    5.40070720e+02
   4571    4573    4581 1       1.03090000e+02    5.20322240e+02
   4571    4584    4585 1       1.20640000e+02    5.08439680e+02
   4572    4571    4573 1       1.13690000e+02    3.54217440e+02
   4572    4571    4584 1       1.14530000e+02    3.58485120e+02
   4573    4571    4584 1       1.24830000e+02    4.77729120e+02
   4573    4575    4576 1       1.13690000e+02    3.54217440e+02
   4573    4575    4577 1       1.22490000e+02    4.75804480e+02
   4573    4575    4953 1       1.24830000e+02    4.77729120e+02
   4573    4581    4579 1       1.03830000e+02    5.17477120e+02
   4573    4581    4582 1       1.11170000e+02    3.56895200e+02
   4573    4581    4583 1       1.11170000e+02    3.56895200e+02
   4574    4573    4581 1       1.11170000e+02    3.56895200e+02
   4575    4573    4574 1       1.12000000e+02    3.56811520e+02
   4575    4577    4578 1       1.14760000e+02    3.49364000e+02
   4577    4575    4576 1       1.14760000e+02    3.49364000e+02
   4577    4579    4580 1       1.12000000e+02    3.56811520e+02
   4579    4577    4575 1       1.22490000e+02    4.75804480e+02
   4579    4577    4578 1       1.13690000e+02    3.54217440e+02
   4579    4577    4952 1       1.24830000e+02    4.77729120e+02
   4579    4581    4582 1       1.11170000e+02    3.56895200e+02
   4579    4581    4583 1       1.11170000e+02    3.56895200e+02
   4580    4579    4581 1       1.11170000e+02    3.56895200e+02
   4581    4573    4575 1       1.03090000e+02    5.20322240e+02
   4581    4579    4577 1       1.03090000e+02    5.20322240e+02
   4582    4581    4583 1       1.07220000e+02    3.00494880e+02
   4584    4585    4586 1       1.19880000e+02    3.75723200e+02
   4587    4588    4589 1       1.20730000e+02    5.29945440e+02
   4587    4622    4621 1       1.20730000e+02    5.29945440e+02
   4587    4622    4623 1       1.19820000e+02    3.74300640e+02
   4588    4587    4622 1       1.18410000e+02    5.33794720e+02
   4588    4589    4590 1       1.19880000e+02    3.75723200e+02
   4588    4589    4591 1       1.20020000e+02    5.32790560e+02
   4589    4591    4592 1       1.20640000e+02    5.08439680e+02
   4589    4591    4621 1       1.20020000e+02    5.32790560e+02
   4590    4589    4591 1       1.19880000e+02    3.75723200e+02
   4591    4592    4593 1       1.14530000e+02    3.58485120e+02
   4591    4592    4594 1       1.16810000e+02    4.91368960e+02
   4591    4592    4616 1       1.24830000e+02    4.77729120e+02
   4591    4621    4594 1       1.20640000e+02    5.08439680e+02
   4591    4621    4622 1       1.20020000e+02    5.32790560e+02
   4592    4591    4621 1       1.20640000e+02    5.08439680e+02
   4592    4594    4595 1       1.14760000e+02    3.49364000e+02
   4592    4594    4596 1       1.22490000e+02    4.75804480e+02
   4592    4594    4621 1       1.16810000e+02    4.91368960e+02
   4592    4616    4614 1       9.60300000e+01    5.40070720e+02
   4592    4616    4617 1       1.12000000e+02    3.56811520e+02
   4592    4616    4618 1       1.03090000e+02    5.20322240e+02
   4593    4592    4594 1       1.14760000e+02    3.49364000e+02
   4593    4592    4616 1       1.13690000e+02    3.54217440e+02
   4594    4592    4616 1       1.22490000e+02    4.75804480e+02
   4594    4596    4597 1       1.12000000e+02    3.56811520e+02
   4594    4596    4598 1       9.60300000e+01    5.40070720e+02
   4594    4596    4618 1       1.03090000e+02    5.20322240e+02
   4594    4621    4622 1       1.20640000e+02    5.08439680e+02
   4595    4594    4596 1       1.13690000e+02    3.54217440e+02
   4595    4594    4621 1       1.14530000e+02    3.58485120e+02
   4596    4594    4621 1       1.24830000e+02    4.77729120e+02
   4596    4598    4599 1       1.13690000e+02    3.54217440e+02
   4596    4598    4600 1       1.24830000e+02    4.77729120e+02
   4596    4598    4614 1       1.22490000e+02    4.75804480e+02
   4596    4618    4616 1       1.03830000e+02    5.17477120e+02
   4596    4618    4619 1       1.11170000e+02    3.56895200e+02
   4596    4618    4620 1       1.11170000e+02    3.56895200e+02
   4597    4596    4598 1       1.12000000e+02    3.56811520e+02
   4597    4596    4618 1       1.11170000e+02    3.56895200e+02
   4598    4596    4618 1       1.03090000e+02    5.20322240e+02
   4598    4600    4601 1       1.20640000e+02    5.08439680e+02
   4598    4600    4609 1       1.20640000e+02    5.08439680e+02
   4598    4614    4601 1       1.16810000e+02    4.91368960e+02
   4598    4614    4615 1       1.14760000e+02    3.49364000e+02
   4598    4614    4616 1       1.22490000e+02    4.75804480e+02
   4599    4598    4600 1       1.14530000e+02    3.58485120e+02
   4599    4598    4614 1       1.14760000e+02    3.49364000e+02
   4600    4598    4614 1       1.16810000e+02    4.91368960e+02
   4600    4601    4602 1       1.20020000e+02    5.32790560e+02
   4600    4601    4614 1       1.20640000e+02    5.08439680e+02
   4600    4609    4608 1       1.20020000e+02    5.32790560e+02
   4600    4609    4610 1       1.20830000e+02    5.08272320e+02
   4601    4600    4609 1       1.20020000e+02    5.32790560e+02
   4601    4602    4603 1       1.20830000e+02    5.08272320e+02
   4601    4602    4607 1       1.20020000e+02    5.32790560e+02
   4601    4614    4615 1       1.14530000e+02    3.58485120e+02
   4601    4614    4616 1       1.24830000e+02    4.77729120e+02
   4602    4601    4614 1       1.20640000e+02    5.08439680e+02
   4602    4603    4604 1       1.10630000e+02    3.64928480e+02
   4602    4603    4605 1       1.10630000e+02    3.64928480e+02
   4602    4603    4606 1       1.10630000e+02    3.64928480e+02
   4602    4607    4608 1       1.20020000e+02    5.32790560e+02
   4602    4607    6438 1       1.20640000e+02    5.08439680e+02
   4603    4602    4607 1       1.20830000e+02    5.08272320e+02
   4604    4603    4605 1       1.07730000e+02    2.99574400e+02
   4604    4603    4606 1       1.07730000e+02    2.99574400e+02
   4605    4603    4606 1       1.07730000e+02    2.99574400e+02
   4607    4608    4609 1       1.20020000e+02    5.32790560e+02
   4607    4608    6440 1       1.20640000e+02    5.08439680e+02
   4607    6438    6439 1       1.14530000e+02    3.58485120e+02
   4607    6438    6440 1       1.16810000e+02    4.91368960e+02
   4608    4607    6438 1       1.20640000e+02    5.08439680e+02
   4608    6440    6438 1       1.16810000e+02    4.91368960e+02
   4608    6440    6441 1       1.14530000e+02    3.58485120e+02
   4609    4608    6440 1       1.20640000e+02    5.08439680e+02
   4609    4610    4611 1       1.10630000e+02    3.64928480e+02
   4609    4610    4612 1       1.10630000e+02    3.64928480e+02
   4609    4610    4613 1       1.10630000e+02    3.64928480e+02
   4610    4609    4608 1       1.20830000e+02    5.08272320e+02
   4611    4610    4612 1       1.07730000e+02    2.99574400e+02
   4611    4610    4613 1       1.07730000e+02    2.99574400e+02
   4612    4610    4613 1       1.07730000e+02    2.99574400e+02
   4614    4616    4617 1       1.12000000e+02    3.56811520e+02
   4614    4616    4618 1       1.03090000e+02    5.20322240e+02
   4615    4614    4616 1       1.13690000e+02    3.54217440e+02
   4616    4618    4619 1       1.11170000e+02    3.56895200e+02
   4616    4618    4620 1       1.11170000e+02    3.56895200e+02
   4617    4616    4618 1       1.11170000e+02    3.56895200e+02
   4619    4618    4620 1       1.07220000e+02    3.00494880e+02
   4621    4622    4623 1       1.19880000e+02    3.75723200e+02
   4624    4628    4629 1       1.10280000e+02    5.05761920e+02
   4624    4628    4633 1       1.13070000e+02    5.03000480e+02
   4624    4628    4657 1       1.13070000e+02    5.03000480e+02
   4625    4624    4626 1       1.07730000e+02    2.99574400e+02
   4625    4624    4627 1       1.07730000e+02    2.99574400e+02
   4625    4624    4628 1       1.10530000e+02    3.60326080e+02
   4626    4624    4627 1       1.07730000e+02    2.99574400e+02
   4626    4624    4628 1       1.10530000e+02    3.60326080e+02
   4627    4624    4628 1       1.10530000e+02    3.60326080e+02
   4628    4629    4630 1       1.10530000e+02    3.60326080e+02
   4628    4629    4631 1       1.10530000e+02    3.60326080e+02
   4628    4629    4632 1       1.10530000e+02    3.60326080e+02
   4628    4633    4634 1       1.10210000e+02    5.31033280e+02
   4628    4633    4654 1       1.21870000e+02    5.06012960e+02
   4628    4657    4656 1       1.10210000e+02    5.31033280e+02
   4628    4657    4658 1       1.21870000e+02    5.06012960e+02
   4629    4628    4633 1       1.13070000e+02    5.03000480e+02
   4629    4628    4657 1       1.13070000e+02    5.03000480e+02
   4630    4629    4631 1       1.07730000e+02    2.99574400e+02
   4630    4629    4632 1       1.07730000e+02    2.99574400e+02
   4631    4629    4632 1       1.07730000e+02    2.99574400e+02
   4633    4628    4657 1       1.12520000e+02    5.08021280e+02
   4633    4634    4635 1       1.18410000e+02    5.33794720e+02
   4633    4634    4656 1       1.21100000e+02    5.12958400e+02
   4633    4654    4653 1       1.20020000e+02    5.32790560e+02
   4633    4654    4655 1       1.19880000e+02    3.75723200e+02
   4634    4633    4654 1       1.20730000e+02    5.29945440e+02
   4634    4635    4636 1       1.19820000e+02    3.74300640e+02
   4634    4635    4637 1       1.20730000e+02    5.29945440e+02
   4634    4656    4657 1       1.21100000e+02    5.12958400e+02
   4634    4656    4691 1       1.21100000e+02    5.12958400e+02
   4635    4634    4656 1       1.21100000e+02    5.12958400e+02
   4635    4637    4638 1       1.20640000e+02    5.08439680e+02
   4635    4637    4653 1       1.20020000e+02    5.32790560e+02
   4636    4635    4637 1       1.19880000e+02    3.75723200e+02
   4637    4638    4639 1       1.14530000e+02    3.58485120e+02
   4637    4638    4640 1       1.16810000e+02    4.91368960e+02
   4637    4638    4648 1       1.24830000e+02    4.77729120e+02
   4637    4653    4640 1       1.20640000e+02    5.08439680e+02
   4637    4653    4654 1       1.20020000e+02    5.32790560e+02
   4638    4637    4653 1       1.20640000e+02    5.08439680e+02
   4638    4640    4641 1       1.14760000e+02    3.49364000e+02
   4638    4640    4642 1       1.22490000e+02    4.75804480e+02
   4638    4640    4653 1       1.16810000e+02    4.91368960e+02
   4638    4648    4646 1       9.60300000e+01    5.40070720e+02
   4638    4648    4649 1       1.12000000e+02    3.56811520e+02
   4638    4648    4650 1       1.03090000e+02    5.20322240e+02
   4639    4638    4640 1       1.14760000e+02    3.49364000e+02
   4639    4638    4648 1       1.13690000e+02    3.54217440e+02
   4640    4638    4648 1       1.22490000e+02    4.75804480e+02
   4640    4642    4643 1       1.12000000e+02    3.56811520e+02
   4640    4642    4644 1       9.60300000e+01    5.40070720e+02
   4640    4642    4650 1       1.03090000e+02    5.20322240e+02
   4640    4653    4654 1       1.20640000e+02    5.08439680e+02
   4641    4640    4642 1       1.13690000e+02    3.54217440e+02
   4641    4640    4653 1       1.14530000e+02    3.58485120e+02
   4642    4640    4653 1       1.24830000e+02    4.77729120e+02
   4642    4644    4645 1       1.13690000e+02    3.54217440e+02
   4642    4644    4646 1       1.22490000e+02    4.75804480e+02
   4642    4644    6264 1       1.24830000e+02    4.77729120e+02
   4642    4650    4648 1       1.03830000e+02    5.17477120e+02
   4642    4650    4651 1       1.11170000e+02    3.56895200e+02
   4642    4650    4652 1       1.11170000e+02    3.56895200e+02
   4643    4642    4650 1       1.11170000e+02    3.56895200e+02
   4644    4642    4643 1       1.12000000e+02    3.56811520e+02
   4644    4646    4647 1       1.14760000e+02    3.49364000e+02
   4646    4644    4645 1       1.14760000e+02    3.49364000e+02
   4646    4648    4649 1       1.12000000e+02    3.56811520e+02
   4648    4646    4644 1       1.22490000e+02    4.75804480e+02
   4648    4646    4647 1       1.13690000e+02    3.54217440e+02
   4648    4646    6263 1       1.24830000e+02    4.77729120e+02
   4648    4650    4651 1       1.11170000e+02    3.56895200e+02
   4648    4650    4652 1       1.11170000e+02    3.56895200e+02
   4649    4648    4650 1       1.11170000e+02    3.56895200e+02
   4650    4642    4644 1       1.03090000e+02    5.20322240e+02
   4650    4648    4646 1       1.03090000e+02    5.20322240e+02
   4651    4650    4652 1       1.07220000e+02    3.00494880e+02
   4653    4654    4655 1       1.19880000e+02    3.75723200e+02
   4656    4657    4658 1       1.20730000e+02    5.29945440e+02
   4656    4691    4690 1       1.20730000e+02    5.29945440e+02
   4656    4691    4692 1       1.19820000e+02    3.74300640e+02
   4657    4656    4691 1       1.18410000e+02    5.33794720e+02
   4657    4658    4659 1       1.19880000e+02    3.75723200e+02
   4657    4658    4660 1       1.20020000e+02    5.32790560e+02
   4658    4660    4661 1       1.20640000e+02    5.08439680e+02
   4658    4660    4690 1       1.20020000e+02    5.32790560e+02
   4659    4658    4660 1       1.19880000e+02    3.75723200e+02
   4660    4661    4662 1       1.14530000e+02    3.58485120e+02
   4660    4661    4663 1       1.16810000e+02    4.91368960e+02
   4660    4661    4685 1       1.24830000e+02    4.77729120e+02
   4660    4690    4663 1       1.20640000e+02    5.08439680e+02
   4660    4690    4691 1       1.20020000e+02    5.32790560e+02
   4661    4660    4690 1       1.20640000e+02    5.08439680e+02
   4661    4663    4664 1       1.14760000e+02    3.49364000e+02
   4661    4663    4665 1       1.22490000e+02    4.75804480e+02
   4661    4663    4690 1       1.16810000e+02    4.91368960e+02
   4661    4685    4683 1       9.60300000e+01    5.40070720e+02
   4661    4685    4686 1       1.12000000e+02    3.56811520e+02
   4661    4685    4687 1       1.03090000e+02    5.20322240e+02
   4662    4661    4663 1       1.14760000e+02    3.49364000e+02
   4662    4661    4685 1       1.13690000e+02    3.54217440e+02
   4663    4661    4685 1       1.22490000e+02    4.75804480e+02
   4663    4665    4666 1       1.12000000e+02    3.56811520e+02
   4663    4665    4667 1       9.60300000e+01    5.40070720e+02
   4663    4665    4687 1       1.03090000e+02    5.20322240e+02
   4663    4690    4691 1       1.20640000e+02    5.08439680e+02
   4664    4663    4665 1       1.13690000e+02    3.54217440e+02
   4664    4663    4690 1       1.14530000e+02    3.58485120e+02
   4665    4663    4690 1       1.24830000e+02    4.77729120e+02
   4665    4667    4668 1       1.13690000e+02    3.54217440e+02
   4665    4667    4669 1       1.24830000e+02    4.77729120e+02
   4665    4667    4683 1       1.22490000e+02    4.75804480e+02
   4665    4687    4685 1       1.03830000e+02    5.17477120e+02
   4665    4687    4688 1       1.11170000e+02    3.56895200e+02
   4665    4687    4689 1       1.11170000e+02    3.56895200e+02
   4666    4665    4667 1       1.12000000e+02    3.56811520e+02
   4666    4665    4687 1       1.11170000e+02    3.56895200e+02
   4667    4665    4687 1       1.03090000e+02    5.20322240e+02
   4667    4669    4670 1       1.20640000e+02    5.08439680e+02
   4667    4669    4678 1       1.20640000e+02    5.08439680e+02
   4667    4683    4670 1       1.16810000e+02    4.91368960e+02
   4667    4683    4684 1       1.14760000e+02    3.49364000e+02
   4667    4683    4685 1       1.22490000e+02    4.75804480e+02
   4668    4667    4669 1       1.14530000e+02    3.58485120e+02
   4668    4667    4683 1       1.14760000e+02    3.49364000e+02
   4669    4667    4683 1       1.16810000e+02    4.91368960e+02
   4669    4670    4671 1       1.20020000e+02    5.32790560e+02
   4669    4670    4683 1       1.20640000e+02    5.08439680e+02
   4669    4678    4677 1       1.20020000e+02    5.32790560e+02
   4669    4678    4679 1       1.20830000e+02    5.08272320e+02
   4670    4669    4678 1       1.20020000e+02    5.32790560e+02
   4670    4671    4672 1       1.20830000e+02    5.08272320e+02
   4670    4671    4676 1       1.20020000e+02    5.32790560e+02
   4670    4683    4684 1       1.14530000e+02    3.58485120e+02
   4670    4683    4685 1       1.24830000e+02    4.77729120e+02
   4671    4670    4683 1       1.20640000e+02    5.08439680e+02
   4671    4672    4673 1       1.10630000e+02    3.64928480e+02
   4671    4672    4674 1       1.10630000e+02    3.64928480e+02
   4671    4672    4675 1       1.10630000e+02    3.64928480e+02
   4671    4676    1263 1       1.20640000e+02    5.08439680e+02
   4671    4676    4677 1       1.20020000e+02    5.32790560e+02
   4672    4671    4676 1       1.20830000e+02    5.08272320e+02
   4673    4672    4674 1       1.07730000e+02    2.99574400e+02
   4673    4672    4675 1       1.07730000e+02    2.99574400e+02
   4674    4672    4675 1       1.07730000e+02    2.99574400e+02
   4676    1263    1264 1       1.14530000e+02    3.58485120e+02
   4676    1263    1265 1       1.16810000e+02    4.91368960e+02
   4676    4677    1265 1       1.20640000e+02    5.08439680e+02
   4676    4677    4678 1       1.20020000e+02    5.32790560e+02
   4677    1265    1263 1       1.16810000e+02    4.91368960e+02
   4677    1265    1266 1       1.14530000e+02    3.58485120e+02
   4677    4676    1263 1       1.20640000e+02    5.08439680e+02
   4678    4677    1265 1       1.20640000e+02    5.08439680e+02
   4678    4679    4680 1       1.10630000e+02    3.64928480e+02
   4678    4679    4681 1       1.10630000e+02    3.64928480e+02
   4678    4679    4682 1       1.10630000e+02    3.64928480e+02
   4679    4678    4677 1       1.20830000e+02    5.08272320e+02
   4680    4679    4681 1       1.07730000e+02    2.99574400e+02
   4680    4679    4682 1       1.07730000e+02    2.99574400e+02
   4681    4679    4682 1       1.07730000e+02    2.99574400e+02
   4683    4685    4686 1       1.12000000e+02    3.56811520e+02
   4683    4685    4687 1       1.03090000e+02    5.20322240e+02
   4684    4683    4685 1       1.13690000e+02    3.54217440e+02
   4685    4687    4688 1       1.11170000e+02    3.56895200e+02
   4685    4687    4689 1       1.11170000e+02    3.56895200e+02
   4686    4685    4687 1       1.11170000e+02    3.56895200e+02
   4688    4687    4689 1       1.07220000e+02    3.00494880e+02
   4690    4691    4692 1       1.19880000e+02    3.75723200e+02
   4693    4697    4698 1       1.10280000e+02    5.05761920e+02
   4693    4697    4702 1       1.13070000e+02    5.03000480e+02
   4693    4697    4726 1       1.13070000e+02    5.03000480e+02
   4694    4693    4695 1       1.07730000e+02    2.99574400e+02
   4694    4693    4696 1       1.07730000e+02    2.99574400e+02
   4694    4693    4697 1       1.10530000e+02    3.60326080e+02
   4695    4693    4696 1       1.07730000e+02    2.99574400e+02
   4695    4693    4697 1       1.10530000e+02    3.60326080e+02
   4696    4693    4697 1       1.10530000e+02    3.60326080e+02
   4697    4698    4699 1       1.10530000e+02    3.60326080e+02
   4697    4698    4700 1       1.10530000e+02    3.60326080e+02
   4697    4698    4701 1       1.10530000e+02    3.60326080e+02
   4697    4702    4703 1       1.10210000e+02    5.31033280e+02
   4697    4702    4723 1       1.21870000e+02    5.06012960e+02
   4697    4726    4725 1       1.10210000e+02    5.31033280e+02
   4697    4726    4727 1       1.21870000e+02    5.06012960e+02
   4698    4697    4702 1       1.13070000e+02    5.03000480e+02
   4698    4697    4726 1       1.13070000e+02    5.03000480e+02
   4699    4698    4700 1       1.07730000e+02    2.99574400e+02
   4699    4698    4701 1       1.07730000e+02    2.99574400e+02
   4700    4698    4701 1       1.07730000e+02    2.99574400e+02
   4702    4697    4726 1       1.12520000e+02    5.08021280e+02
   4702    4703    4704 1       1.18410000e+02    5.33794720e+02
   4702    4703    4725 1       1.21100000e+02    5.12958400e+02
   4702    4723    4722 1       1.20020000e+02    5.32790560e+02
   4702    4723    4724 1       1.19880000e+02    3.75723200e+02
   4703    4702    4723 1       1.20730000e+02    5.29945440e+02
   4703    4704    4705 1       1.19820000e+02    3.74300640e+02
   4703    4704    4706 1       1.20730000e+02    5.29945440e+02
   4703    4725    4726 1       1.21100000e+02    5.12958400e+02
   4703    4725    4760 1       1.21100000e+02    5.12958400e+02
   4704    4703    4725 1       1.21100000e+02    5.12958400e+02
   4704    4706    4707 1       1.20640000e+02    5.08439680e+02
   4704    4706    4722 1       1.20020000e+02    5.32790560e+02
   4705    4704    4706 1       1.19880000e+02    3.75723200e+02
   4706    4707    4708 1       1.14530000e+02    3.58485120e+02
   4706    4707    4709 1       1.16810000e+02    4.91368960e+02
   4706    4707    4717 1       1.24830000e+02    4.77729120e+02
   4706    4722    4709 1       1.20640000e+02    5.08439680e+02
   4706    4722    4723 1       1.20020000e+02    5.32790560e+02
   4707    4706    4722 1       1.20640000e+02    5.08439680e+02
   4707    4709    4710 1       1.14760000e+02    3.49364000e+02
   4707    4709    4711 1       1.22490000e+02    4.75804480e+02
   4707    4709    4722 1       1.16810000e+02    4.91368960e+02
   4707    4717    4715 1       9.60300000e+01    5.40070720e+02
   4707    4717    4718 1       1.12000000e+02    3.56811520e+02
   4707    4717    4719 1       1.03090000e+02    5.20322240e+02
   4708    4707    4709 1       1.14760000e+02    3.49364000e+02
   4708    4707    4717 1       1.13690000e+02    3.54217440e+02
   4709    4707    4717 1       1.22490000e+02    4.75804480e+02
   4709    4711    4712 1       1.12000000e+02    3.56811520e+02
   4709    4711    4713 1       9.60300000e+01    5.40070720e+02
   4709    4711    4719 1       1.03090000e+02    5.20322240e+02
   4709    4722    4723 1       1.20640000e+02    5.08439680e+02
   4710    4709    4711 1       1.13690000e+02    3.54217440e+02
   4710    4709    4722 1       1.14530000e+02    3.58485120e+02
   4711    4709    4722 1       1.24830000e+02    4.77729120e+02
   4711    4713    4714 1       1.13690000e+02    3.54217440e+02
   4711    4713    4715 1       1.22490000e+02    4.75804480e+02
   4711    4713    6747 1       1.24830000e+02    4.77729120e+02
   4711    4719    4717 1       1.03830000e+02    5.17477120e+02
   4711    4719    4720 1       1.11170000e+02    3.56895200e+02
   4711    4719    4721 1       1.11170000e+02    3.56895200e+02
   4712    4711    4719 1       1.11170000e+02    3.56895200e+02
   4713    4711    4712 1       1.12000000e+02    3.56811520e+02
   4713    4715    4716 1       1.14760000e+02    3.49364000e+02
   4715    4713    4714 1       1.14760000e+02    3.49364000e+02
   4715    4717    4718 1       1.12000000e+02    3.56811520e+02
   4717    4715    4713 1       1.22490000e+02    4.75804480e+02
   4717    4715    4716 1       1.13690000e+02    3.54217440e+02
   4717    4715    6746 1       1.24830000e+02    4.77729120e+02
   4717    4719    4720 1       1.11170000e+02    3.56895200e+02
   4717    4719    4721 1       1.11170000e+02    3.56895200e+02
   4718    4717    4719 1       1.11170000e+02    3.56895200e+02
   4719    4711    4713 1       1.03090000e+02    5.20322240e+02
   4719    4717    4715 1       1.03090000e+02    5.20322240e+02
   4720    4719    4721 1       1.07220000e+02    3.00494880e+02
   4722    4723    4724 1       1.19880000e+02    3.75723200e+02
   4725    4726    4727 1       1.20730000e+02    5.29945440e+02
   4725    4760    4759 1       1.20730000e+02    5.29945440e+02
   4725    4760    4761 1       1.19820000e+02    3.74300640e+02
   4726    4725    4760 1       1.18410000e+02    5.33794720e+02
   4726    4727    4728 1       1.19880000e+02    3.75723200e+02
   4726    4727    4729 1       1.20020000e+02    5.32790560e+02
   4727    4729    4730 1       1.20640000e+02    5.08439680e+02
   4727    4729    4759 1       1.20020000e+02    5.32790560e+02
   4728    4727    4729 1       1.19880000e+02    3.75723200e+02
   4729    4730    4731 1       1.14530000e+02    3.58485120e+02
   4729    4730    4732 1       1.16810000e+02    4.91368960e+02
   4729    4730    4754 1       1.24830000e+02    4.77729120e+02
   4729    4759    4732 1       1.20640000e+02    5.08439680e+02
   4729    4759    4760 1       1.20020000e+02    5.32790560e+02
   4730    4729    4759 1       1.20640000e+02    5.08439680e+02
   4730    4732    4733 1       1.14760000e+02    3.49364000e+02
   4730    4732    4734 1       1.22490000e+02    4.75804480e+02
   4730    4732    4759 1       1.16810000e+02    4.91368960e+02
   4730    4754    4752 1       9.60300000e+01    5.40070720e+02
   4730    4754    4755 1       1.12000000e+02    3.56811520e+02
   4730    4754    4756 1       1.03090000e+02    5.20322240e+02
   4731    4730    4732 1       1.14760000e+02    3.49364000e+02
   4731    4730    4754 1       1.13690000e+02    3.54217440e+02
   4732    4730    4754 1       1.22490000e+02    4.75804480e+02
   4732    4734    4735 1       1.12000000e+02    3.56811520e+02
   4732    4734    4736 1       9.60300000e+01    5.40070720e+02
   4732    4734    4756 1       1.03090000e+02    5.20322240e+02
   4732    4759    4760 1       1.20640000e+02    5.08439680e+02
   4733    4732    4734 1       1.13690000e+02    3.54217440e+02
   4733    4732    4759 1       1.14530000e+02    3.58485120e+02
   4734    4732    4759 1       1.24830000e+02    4.77729120e+02
   4734    4736    4737 1       1.13690000e+02    3.54217440e+02
   4734    4736    4738 1       1.24830000e+02    4.77729120e+02
   4734    4736    4752 1       1.22490000e+02    4.75804480e+02
   4734    4756    4754 1       1.03830000e+02    5.17477120e+02
   4734    4756    4757 1       1.11170000e+02    3.56895200e+02
   4734    4756    4758 1       1.11170000e+02    3.56895200e+02
   4735    4734    4736 1       1.12000000e+02    3.56811520e+02
   4735    4734    4756 1       1.11170000e+02    3.56895200e+02
   4736    4734    4756 1       1.03090000e+02    5.20322240e+02
   4736    4738    4739 1       1.20640000e+02    5.08439680e+02
   4736    4738    4747 1       1.20640000e+02    5.08439680e+02
   4736    4752    4739 1       1.16810000e+02    4.91368960e+02
   4736    4752    4753 1       1.14760000e+02    3.49364000e+02
   4736    4752    4754 1       1.22490000e+02    4.75804480e+02
   4737    4736    4738 1       1.14530000e+02    3.58485120e+02
   4737    4736    4752 1       1.14760000e+02    3.49364000e+02
   4738    4736    4752 1       1.16810000e+02    4.91368960e+02
   4738    4739    4740 1       1.20020000e+02    5.32790560e+02
   4738    4739    4752 1       1.20640000e+02    5.08439680e+02
   4738    4747    4746 1       1.20020000e+02    5.32790560e+02
   4738    4747    4748 1       1.20830000e+02    5.08272320e+02
   4739    4738    4747 1       1.20020000e+02    5.32790560e+02
   4739    4740    4741 1       1.20830000e+02    5.08272320e+02
   4739    4740    4745 1       1.20020000e+02    5.32790560e+02
   4739    4752    4753 1       1.14530000e+02    3.58485120e+02
   4739    4752    4754 1       1.24830000e+02    4.77729120e+02
   4740    4739    4752 1       1.20640000e+02    5.08439680e+02
   4740    4741    4742 1       1.10630000e+02    3.64928480e+02
   4740    4741    4743 1       1.10630000e+02    3.64928480e+02
   4740    4741    4744 1       1.10630000e+02    3.64928480e+02
   4740    4745    4746 1       1.20020000e+02    5.32790560e+02
   4740    4745    5543 1       1.20640000e+02    5.08439680e+02
   4741    4740    4745 1       1.20830000e+02    5.08272320e+02
   4742    4741    4743 1       1.07730000e+02    2.99574400e+02
   4742    4741    4744 1       1.07730000e+02    2.99574400e+02
   4743    4741    4744 1       1.07730000e+02    2.99574400e+02
   4745    4746    4747 1       1.20020000e+02    5.32790560e+02
   4745    4746    5541 1       1.20640000e+02    5.08439680e+02
   4745    5543    5541 1       1.16810000e+02    4.91368960e+02
   4745    5543    5544 1       1.14530000e+02    3.58485120e+02
   4746    4745    5543 1       1.20640000e+02    5.08439680e+02
   4746    5541    5542 1       1.14530000e+02    3.58485120e+02
   4746    5541    5543 1       1.16810000e+02    4.91368960e+02
   4747    4746    5541 1       1.20640000e+02    5.08439680e+02
   4747    4748    4749 1       1.10630000e+02    3.64928480e+02
   4747    4748    4750 1       1.10630000e+02    3.64928480e+02
   4747    4748    4751 1       1.10630000e+02    3.64928480e+02
   4748    4747    4746 1       1.20830000e+02    5.08272320e+02
   4749    4748    4750 1       1.07730000e+02    2.99574400e+02
   4749    4748    4751 1       1.07730000e+02    2.99574400e+02
   4750    4748    4751 1       1.07730000e+02    2.99574400e+02
   4752    4754    4755 1       1.12000000e+02    3.56811520e+02
   4752    4754    4756 1       1.03090000e+02    5.20322240e+02
   4753    4752    4754 1       1.13690000e+02    3.54217440e+02
   4754    4756    4757 1       1.11170000e+02    3.56895200e+02
   4754    4756    4758 1       1.11170000e+02    3.56895200e+02
   4755    4754    4756 1       1.11170000e+02    3.56895200e+02
   4757    4756    4758 1       1.07220000e+02    3.00494880e+02
   4759    4760    4761 1       1.19880000e+02    3.75723200e+02
   4762    4766    4767 1       1.10280000e+02    5.05761920e+02
   4762    4766    4771 1       1.13070000e+02    5.03000480e+02
   4762    4766    4795 1       1.13070000e+02    5.03000480e+02
   4763    4762    4764 1       1.07730000e+02    2.99574400e+02
   4763    4762    4765 1       1.07730000e+02    2.99574400e+02
   4763    4762    4766 1       1.10530000e+02    3.60326080e+02
   4764    4762    4765 1       1.07730000e+02    2.99574400e+02
   4764    4762    4766 1       1.10530000e+02    3.60326080e+02
   4765    4762    4766 1       1.10530000e+02    3.60326080e+02
   4766    4767    4768 1       1.10530000e+02    3.60326080e+02
   4766    4767    4769 1       1.10530000e+02    3.60326080e+02
   4766    4767    4770 1       1.10530000e+02    3.60326080e+02
   4766    4771    4772 1       1.10210000e+02    5.31033280e+02
   4766    4771    4792 1       1.21870000e+02    5.06012960e+02
   4766    4795    4794 1       1.10210000e+02    5.31033280e+02
   4766    4795    4796 1       1.21870000e+02    5.06012960e+02
   4767    4766    4771 1       1.13070000e+02    5.03000480e+02
   4767    4766    4795 1       1.13070000e+02    5.03000480e+02
   4768    4767    4769 1       1.07730000e+02    2.99574400e+02
   4768    4767    4770 1       1.07730000e+02    2.99574400e+02
   4769    4767    4770 1       1.07730000e+02    2.99574400e+02
   4771    4766    4795 1       1.12520000e+02    5.08021280e+02
   4771    4772    4773 1       1.18410000e+02    5.33794720e+02
   4771    4772    4794 1       1.21100000e+02    5.12958400e+02
   4771    4792    4791 1       1.20020000e+02    5.32790560e+02
   4771    4792    4793 1       1.19880000e+02    3.75723200e+02
   4772    4771    4792 1       1.20730000e+02    5.29945440e+02
   4772    4773    4774 1       1.19820000e+02    3.74300640e+02
   4772    4773    4775 1       1.20730000e+02    5.29945440e+02
   4772    4794    4795 1       1.21100000e+02    5.12958400e+02
   4772    4794    4829 1       1.21100000e+02    5.12958400e+02
   4773    4772    4794 1       1.21100000e+02    5.12958400e+02
   4773    4775    4776 1       1.20640000e+02    5.08439680e+02
   4773    4775    4791 1       1.20020000e+02    5.32790560e+02
   4774    4773    4775 1       1.19880000e+02    3.75723200e+02
   4775    4776    4777 1       1.14530000e+02    3.58485120e+02
   4775    4776    4778 1       1.16810000e+02    4.91368960e+02
   4775    4776    4786 1       1.24830000e+02    4.77729120e+02
   4775    4791    4778 1       1.20640000e+02    5.08439680e+02
   4775    4791    4792 1       1.20020000e+02    5.32790560e+02
   4776    4775    4791 1       1.20640000e+02    5.08439680e+02
   4776    4778    4779 1       1.14760000e+02    3.49364000e+02
   4776    4778    4780 1       1.22490000e+02    4.75804480e+02
   4776    4778    4791 1       1.16810000e+02    4.91368960e+02
   4776    4786    4784 1       9.60300000e+01    5.40070720e+02
   4776    4786    4787 1       1.12000000e+02    3.56811520e+02
   4776    4786    4788 1       1.03090000e+02    5.20322240e+02
   4777    4776    4778 1       1.14760000e+02    3.49364000e+02
   4777    4776    4786 1       1.13690000e+02    3.54217440e+02
   4778    4776    4786 1       1.22490000e+02    4.75804480e+02
   4778    4780    4781 1       1.12000000e+02    3.56811520e+02
   4778    4780    4782 1       9.60300000e+01    5.40070720e+02
   4778    4780    4788 1       1.03090000e+02    5.20322240e+02
   4778    4791    4792 1       1.20640000e+02    5.08439680e+02
   4779    4778    4780 1       1.13690000e+02    3.54217440e+02
   4779    4778    4791 1       1.14530000e+02    3.58485120e+02
   4780    4778    4791 1       1.24830000e+02    4.77729120e+02
   4780    4782    4783 1       1.13690000e+02    3.54217440e+02
   4780    4782    4784 1       1.22490000e+02    4.75804480e+02
   4780    4782    6885 1       1.24830000e+02    4.77729120e+02
   4780    4788    4786 1       1.03830000e+02    5.17477120e+02
   4780    4788    4789 1       1.11170000e+02    3.56895200e+02
   4780    4788    4790 1       1.11170000e+02    3.56895200e+02
   4781    4780    4788 1       1.11170000e+02    3.56895200e+02
   4782    4780    4781 1       1.12000000e+02    3.56811520e+02
   4782    4784    4785 1       1.14760000e+02    3.49364000e+02
   4784    4782    4783 1       1.14760000e+02    3.49364000e+02
   4784    4786    4787 1       1.12000000e+02    3.56811520e+02
   4786    4784    4782 1       1.22490000e+02    4.75804480e+02
   4786    4784    4785 1       1.13690000e+02    3.54217440e+02
   4786    4784    6884 1       1.24830000e+02    4.77729120e+02
   4786    4788    4789 1       1.11170000e+02    3.56895200e+02
   4786    4788    4790 1       1.11170000e+02    3.56895200e+02
   4787    4786    4788 1       1.11170000e+02    3.56895200e+02
   4788    4780    4782 1       1.03090000e+02    5.20322240e+02
   4788    4786    4784 1       1.03090000e+02    5.20322240e+02
   4789    4788    4790 1       1.07220000e+02    3.00494880e+02
   4791    4792    4793 1       1.19880000e+02    3.75723200e+02
   4794    4795    4796 1       1.20730000e+02    5.29945440e+02
   4794    4829    4828 1       1.20730000e+02    5.29945440e+02
   4794    4829    4830 1       1.19820000e+02    3.74300640e+02
   4795    4794    4829 1       1.18410000e+02    5.33794720e+02
   4795    4796    4797 1       1.19880000e+02    3.75723200e+02
   4795    4796    4798 1       1.20020000e+02    5.32790560e+02
   4796    4798    4799 1       1.20640000e+02    5.08439680e+02
   4796    4798    4828 1       1.20020000e+02    5.32790560e+02
   4797    4796    4798 1       1.19880000e+02    3.75723200e+02
   4798    4799    4800 1       1.14530000e+02    3.58485120e+02
   4798    4799    4801 1       1.16810000e+02    4.91368960e+02
   4798    4799    4823 1       1.24830000e+02    4.77729120e+02
   4798    4828    4801 1       1.20640000e+02    5.08439680e+02
   4798    4828    4829 1       1.20020000e+02    5.32790560e+02
   4799    4798    4828 1       1.20640000e+02    5.08439680e+02
   4799    4801    4802 1       1.14760000e+02    3.49364000e+02
   4799    4801    4803 1       1.22490000e+02    4.75804480e+02
   4799    4801    4828 1       1.16810000e+02    4.91368960e+02
   4799    4823    4821 1       9.60300000e+01    5.40070720e+02
   4799    4823    4824 1       1.12000000e+02    3.56811520e+02
   4799    4823    4825 1       1.03090000e+02    5.20322240e+02
   4800    4799    4801 1       1.14760000e+02    3.49364000e+02
   4800    4799    4823 1       1.13690000e+02    3.54217440e+02
   4801    4799    4823 1       1.22490000e+02    4.75804480e+02
   4801    4803    4804 1       1.12000000e+02    3.56811520e+02
   4801    4803    4805 1       9.60300000e+01    5.40070720e+02
   4801    4803    4825 1       1.03090000e+02    5.20322240e+02
   4801    4828    4829 1       1.20640000e+02    5.08439680e+02
   4802    4801    4803 1       1.13690000e+02    3.54217440e+02
   4802    4801    4828 1       1.14530000e+02    3.58485120e+02
   4803    4801    4828 1       1.24830000e+02    4.77729120e+02
   4803    4805    4806 1       1.13690000e+02    3.54217440e+02
   4803    4805    4807 1       1.24830000e+02    4.77729120e+02
   4803    4805    4821 1       1.22490000e+02    4.75804480e+02
   4803    4825    4823 1       1.03830000e+02    5.17477120e+02
   4803    4825    4826 1       1.11170000e+02    3.56895200e+02
   4803    4825    4827 1       1.11170000e+02    3.56895200e+02
   4804    4803    4805 1       1.12000000e+02    3.56811520e+02
   4804    4803    4825 1       1.11170000e+02    3.56895200e+02
   4805    4803    4825 1       1.03090000e+02    5.20322240e+02
   4805    4807    4808 1       1.20640000e+02    5.08439680e+02
   4805    4807    4816 1       1.20640000e+02    5.08439680e+02
   4805    4821    4808 1       1.16810000e+02    4.91368960e+02
   4805    4821    4822 1       1.14760000e+02    3.49364000e+02
   4805    4821    4823 1       1.22490000e+02    4.75804480e+02
   4806    4805    4807 1       1.14530000e+02    3.58485120e+02
   4806    4805    4821 1       1.14760000e+02    3.49364000e+02
   4807    4805    4821 1       1.16810000e+02    4.91368960e+02
   4807    4808    4809 1       1.20020000e+02    5.32790560e+02
   4807    4808    4821 1       1.20640000e+02    5.08439680e+02
   4807    4816    4815 1       1.20020000e+02    5.32790560e+02
   4807    4816    4817 1       1.20830000e+02    5.08272320e+02
   4808    4807    4816 1       1.20020000e+02    5.32790560e+02
   4808    4809    4810 1       1.20830000e+02    5.08272320e+02
   4808    4809    4814 1       1.20020000e+02    5.32790560e+02
   4808    4821    4822 1       1.14530000e+02    3.58485120e+02
   4808    4821    4823 1       1.24830000e+02    4.77729120e+02
   4809    4808    4821 1       1.20640000e+02    5.08439680e+02
   4809    4810    4811 1       1.10630000e+02    3.64928480e+02
   4809    4810    4812 1       1.10630000e+02    3.64928480e+02
   4809    4810    4813 1       1.10630000e+02    3.64928480e+02
   4809    4814    4815 1       1.20020000e+02    5.32790560e+02
   4809    4814    6785 1       1.20640000e+02    5.08439680e+02
   4810    4809    4814 1       1.20830000e+02    5.08272320e+02
   4811    4810    4812 1       1.07730000e+02    2.99574400e+02
   4811    4810    4813 1       1.07730000e+02    2.99574400e+02
   4812    4810    4813 1       1.07730000e+02    2.99574400e+02
   4814    4815    4816 1       1.20020000e+02    5.32790560e+02
   4814    4815    6783 1       1.20640000e+02    5.08439680e+02
   4814    6785    6783 1       1.16810000e+02    4.91368960e+02
   4814    6785    6786 1       1.14530000e+02    3.58485120e+02
   4815    4814    6785 1       1.20640000e+02    5.08439680e+02
   4815    6783    6784 1       1.14530000e+02    3.58485120e+02
   4815    6783    6785 1       1.16810000e+02    4.91368960e+02
   4816    4815    6783 1       1.20640000e+02    5.08439680e+02
   4816    4817    4818 1       1.10630000e+02    3.64928480e+02
   4816    4817    4819 1       1.10630000e+02    3.64928480e+02
   4816    4817    4820 1       1.10630000e+02    3.64928480e+02
   4817    4816    4815 1       1.20830000e+02    5.08272320e+02
   4818    4817    4819 1       1.07730000e+02    2.99574400e+02
   4818    4817    4820 1       1.07730000e+02    2.99574400e+02
   4819    4817    4820 1       1.07730000e+02    2.99574400e+02
   4821    4823    4824 1       1.12000000e+02    3.56811520e+02
   4821    4823    4825 1       1.03090000e+02    5.20322240e+02
   4822    4821    4823 1       1.13690000e+02    3.54217440e+02
   4823    4825    4826 1       1.11170000e+02    3.56895200e+02
   4823    4825    4827 1       1.11170000e+02    3.56895200e+02
   4824    4823    4825 1       1.11170000e+02    3.56895200e+02
   4826    4825    4827 1       1.07220000e+02    3.00494880e+02
   4828    4829    4830 1       1.19880000e+02    3.75723200e+02
   4831    4835    4836 1       1.10280000e+02    5.05761920e+02
   4831    4835    4840 1       1.13070000e+02    5.03000480e+02
   4831    4835    4864 1       1.13070000e+02    5.03000480e+02
   4832    4831    4833 1       1.07730000e+02    2.99574400e+02
   4832    4831    4834 1       1.07730000e+02    2.99574400e+02
   4832    4831    4835 1       1.10530000e+02    3.60326080e+02
   4833    4831    4834 1       1.07730000e+02    2.99574400e+02
   4833    4831    4835 1       1.10530000e+02    3.60326080e+02
   4834    4831    4835 1       1.10530000e+02    3.60326080e+02
   4835    4836    4837 1       1.10530000e+02    3.60326080e+02
   4835    4836    4838 1       1.10530000e+02    3.60326080e+02
   4835    4836    4839 1       1.10530000e+02    3.60326080e+02
   4835    4840    4841 1       1.10210000e+02    5.31033280e+02
   4835    4840    4861 1       1.21870000e+02    5.06012960e+02
   4835    4864    4863 1       1.10210000e+02    5.31033280e+02
   4835    4864    4865 1       1.21870000e+02    5.06012960e+02
   4836    4835    4840 1       1.13070000e+02    5.03000480e+02
   4836    4835    4864 1       1.13070000e+02    5.03000480e+02
   4837    4836    4838 1       1.07730000e+02    2.99574400e+02
   4837    4836    4839 1       1.07730000e+02    2.99574400e+02
   4838    4836    4839 1       1.07730000e+02    2.99574400e+02
   4840    4835    4864 1       1.12520000e+02    5.08021280e+02
   4840    4841    4842 1       1.18410000e+02    5.33794720e+02
   4840    4841    4863 1       1.21100000e+02    5.12958400e+02
   4840    4861    4860 1       1.20020000e+02    5.32790560e+02
   4840    4861    4862 1       1.19880000e+02    3.75723200e+02
   4841    4840    4861 1       1.20730000e+02    5.29945440e+02
   4841    4842    4843 1       1.19820000e+02    3.74300640e+02
   4841    4842    4844 1       1.20730000e+02    5.29945440e+02
   4841    4863    4864 1       1.21100000e+02    5.12958400e+02
   4841    4863    4898 1       1.21100000e+02    5.12958400e+02
   4842    4841    4863 1       1.21100000e+02    5.12958400e+02
   4842    4844    4845 1       1.20640000e+02    5.08439680e+02
   4842    4844    4860 1       1.20020000e+02    5.32790560e+02
   4843    4842    4844 1       1.19880000e+02    3.75723200e+02
   4844    4845    4846 1       1.14530000e+02    3.58485120e+02
   4844    4845    4847 1       1.16810000e+02    4.91368960e+02
   4844    4845    4855 1       1.24830000e+02    4.77729120e+02
   4844    4860    4847 1       1.20640000e+02    5.08439680e+02
   4844    4860    4861 1       1.20020000e+02    5.32790560e+02
   4845    4844    4860 1       1.20640000e+02    5.08439680e+02
   4845    4847    4848 1       1.14760000e+02    3.49364000e+02
   4845    4847    4849 1       1.22490000e+02    4.75804480e+02
   4845    4847    4860 1       1.16810000e+02    4.91368960e+02
   4845    4855    4853 1       9.60300000e+01    5.40070720e+02
   4845    4855    4856 1       1.12000000e+02    3.56811520e+02
   4845    4855    4857 1       1.03090000e+02    5.20322240e+02
   4846    4845    4847 1       1.14760000e+02    3.49364000e+02
   4846    4845    4855 1       1.13690000e+02    3.54217440e+02
   4847    4845    4855 1       1.22490000e+02    4.75804480e+02
   4847    4849    4850 1       1.12000000e+02    3.56811520e+02
   4847    4849    4851 1       9.60300000e+01    5.40070720e+02
   4847    4849    4857 1       1.03090000e+02    5.20322240e+02
   4847    4860    4861 1       1.20640000e+02    5.08439680e+02
   4848    4847    4849 1       1.13690000e+02    3.54217440e+02
   4848    4847    4860 1       1.14530000e+02    3.58485120e+02
   4849    4847    4860 1       1.24830000e+02    4.77729120e+02
   4849    4851    2192 1       1.24830000e+02    4.77729120e+02
   4849    4851    4852 1       1.13690000e+02    3.54217440e+02
   4849    4851    4853 1       1.22490000e+02    4.75804480e+02
   4849    4857    4855 1       1.03830000e+02    5.17477120e+02
   4849    4857    4858 1       1.11170000e+02    3.56895200e+02
   4849    4857    4859 1       1.11170000e+02    3.56895200e+02
   4850    4849    4857 1       1.11170000e+02    3.56895200e+02
   4851    4849    4850 1       1.12000000e+02    3.56811520e+02
   4851    4853    4854 1       1.14760000e+02    3.49364000e+02
   4853    4851    4852 1       1.14760000e+02    3.49364000e+02
   4853    4855    4856 1       1.12000000e+02    3.56811520e+02
   4855    4853    2193 1       1.24830000e+02    4.77729120e+02
   4855    4853    4851 1       1.22490000e+02    4.75804480e+02
   4855    4853    4854 1       1.13690000e+02    3.54217440e+02
   4855    4857    4858 1       1.11170000e+02    3.56895200e+02
   4855    4857    4859 1       1.11170000e+02    3.56895200e+02
   4856    4855    4857 1       1.11170000e+02    3.56895200e+02
   4857    4849    4851 1       1.03090000e+02    5.20322240e+02
   4857    4855    4853 1       1.03090000e+02    5.20322240e+02
   4858    4857    4859 1       1.07220000e+02    3.00494880e+02
   4860    4861    4862 1       1.19880000e+02    3.75723200e+02
   4863    4864    4865 1       1.20730000e+02    5.29945440e+02
   4863    4898    4897 1       1.20730000e+02    5.29945440e+02
   4863    4898    4899 1       1.19820000e+02    3.74300640e+02
   4864    4863    4898 1       1.18410000e+02    5.33794720e+02
   4864    4865    4866 1       1.19880000e+02    3.75723200e+02
   4864    4865    4867 1       1.20020000e+02    5.32790560e+02
   4865    4867    4868 1       1.20640000e+02    5.08439680e+02
   4865    4867    4897 1       1.20020000e+02    5.32790560e+02
   4866    4865    4867 1       1.19880000e+02    3.75723200e+02
   4867    4868    4869 1       1.14530000e+02    3.58485120e+02
   4867    4868    4870 1       1.16810000e+02    4.91368960e+02
   4867    4868    4892 1       1.24830000e+02    4.77729120e+02
   4867    4897    4870 1       1.20640000e+02    5.08439680e+02
   4867    4897    4898 1       1.20020000e+02    5.32790560e+02
   4868    4867    4897 1       1.20640000e+02    5.08439680e+02
   4868    4870    4871 1       1.14760000e+02    3.49364000e+02
   4868    4870    4872 1       1.22490000e+02    4.75804480e+02
   4868    4870    4897 1       1.16810000e+02    4.91368960e+02
   4868    4892    4890 1       9.60300000e+01    5.40070720e+02
   4868    4892    4893 1       1.12000000e+02    3.56811520e+02
   4868    4892    4894 1       1.03090000e+02    5.20322240e+02
   4869    4868    4870 1       1.14760000e+02    3.49364000e+02
   4869    4868    4892 1       1.13690000e+02    3.54217440e+02
   4870    4868    4892 1       1.22490000e+02    4.75804480e+02
   4870    4872    4873 1       1.12000000e+02    3.56811520e+02
   4870    4872    4874 1       9.60300000e+01    5.40070720e+02
   4870    4872    4894 1       1.03090000e+02    5.20322240e+02
   4870    4897    4898 1       1.20640000e+02    5.08439680e+02
   4871    4870    4872 1       1.13690000e+02    3.54217440e+02
   4871    4870    4897 1       1.14530000e+02    3.58485120e+02
   4872    4870    4897 1       1.24830000e+02    4.77729120e+02
   4872    4874    4875 1       1.13690000e+02    3.54217440e+02
   4872    4874    4876 1       1.24830000e+02    4.77729120e+02
   4872    4874    4890 1       1.22490000e+02    4.75804480e+02
   4872    4894    4892 1       1.03830000e+02    5.17477120e+02
   4872    4894    4895 1       1.11170000e+02    3.56895200e+02
   4872    4894    4896 1       1.11170000e+02    3.56895200e+02
   4873    4872    4874 1       1.12000000e+02    3.56811520e+02
   4873    4872    4894 1       1.11170000e+02    3.56895200e+02
   4874    4872    4894 1       1.03090000e+02    5.20322240e+02
   4874    4876    4877 1       1.20640000e+02    5.08439680e+02
   4874    4876    4885 1       1.20640000e+02    5.08439680e+02
   4874    4890    4877 1       1.16810000e+02    4.91368960e+02
   4874    4890    4891 1       1.14760000e+02    3.49364000e+02
   4874    4890    4892 1       1.22490000e+02    4.75804480e+02
   4875    4874    4876 1       1.14530000e+02    3.58485120e+02
   4875    4874    4890 1       1.14760000e+02    3.49364000e+02
   4876    4874    4890 1       1.16810000e+02    4.91368960e+02
   4876    4877    4878 1       1.20020000e+02    5.32790560e+02
   4876    4877    4890 1       1.20640000e+02    5.08439680e+02
   4876    4885    4884 1       1.20020000e+02    5.32790560e+02
   4876    4885    4886 1       1.20830000e+02    5.08272320e+02
   4877    4876    4885 1       1.20020000e+02    5.32790560e+02
   4877    4878    4879 1       1.20830000e+02    5.08272320e+02
   4877    4878    4883 1       1.20020000e+02    5.32790560e+02
   4877    4890    4891 1       1.14530000e+02    3.58485120e+02
   4877    4890    4892 1       1.24830000e+02    4.77729120e+02
   4878    4877    4890 1       1.20640000e+02    5.08439680e+02
   4878    4879    4880 1       1.10630000e+02    3.64928480e+02
   4878    4879    4881 1       1.10630000e+02    3.64928480e+02
   4878    4879    4882 1       1.10630000e+02    3.64928480e+02
   4878    4883    1125 1       1.20640000e+02    5.08439680e+02
   4878    4883    4884 1       1.20020000e+02    5.32790560e+02
   4879    4878    4883 1       1.20830000e+02    5.08272320e+02
   4880    4879    4881 1       1.07730000e+02    2.99574400e+02
   4880    4879    4882 1       1.07730000e+02    2.99574400e+02
   4881    4879    4882 1       1.07730000e+02    2.99574400e+02
   4883    1125    1126 1       1.14530000e+02    3.58485120e+02
   4883    1125    1127 1       1.16810000e+02    4.91368960e+02
   4883    4884    1127 1       1.20640000e+02    5.08439680e+02
   4883    4884    4885 1       1.20020000e+02    5.32790560e+02
   4884    1127    1125 1       1.16810000e+02    4.91368960e+02
   4884    1127    1128 1       1.14530000e+02    3.58485120e+02
   4884    4883    1125 1       1.20640000e+02    5.08439680e+02
   4885    4884    1127 1       1.20640000e+02    5.08439680e+02
   4885    4886    4887 1       1.10630000e+02    3.64928480e+02
   4885    4886    4888 1       1.10630000e+02    3.64928480e+02
   4885    4886    4889 1       1.10630000e+02    3.64928480e+02
   4886    4885    4884 1       1.20830000e+02    5.08272320e+02
   4887    4886    4888 1       1.07730000e+02    2.99574400e+02
   4887    4886    4889 1       1.07730000e+02    2.99574400e+02
   4888    4886    4889 1       1.07730000e+02    2.99574400e+02
   4890    4892    4893 1       1.12000000e+02    3.56811520e+02
   4890    4892    4894 1       1.03090000e+02    5.20322240e+02
   4891    4890    4892 1       1.13690000e+02    3.54217440e+02
   4892    4894    4895 1       1.11170000e+02    3.56895200e+02
   4892    4894    4896 1       1.11170000e+02    3.56895200e+02
   4893    4892    4894 1       1.11170000e+02    3.56895200e+02
   4895    4894    4896 1       1.07220000e+02    3.00494880e+02
   4897    4898    4899 1       1.19880000e+02    3.75723200e+02
   4900    4904    4905 1       1.10280000e+02    5.05761920e+02
   4900    4904    4909 1       1.13070000e+02    5.03000480e+02
   4900    4904    4933 1       1.13070000e+02    5.03000480e+02
   4901    4900    4902 1       1.07730000e+02    2.99574400e+02
   4901    4900    4903 1       1.07730000e+02    2.99574400e+02
   4901    4900    4904 1       1.10530000e+02    3.60326080e+02
   4902    4900    4903 1       1.07730000e+02    2.99574400e+02
   4902    4900    4904 1       1.10530000e+02    3.60326080e+02
   4903    4900    4904 1       1.10530000e+02    3.60326080e+02
   4904    4905    4906 1       1.10530000e+02    3.60326080e+02
   4904    4905    4907 1       1.10530000e+02    3.60326080e+02
   4904    4905    4908 1       1.10530000e+02    3.60326080e+02
   4904    4909    4910 1       1.10210000e+02    5.31033280e+02
   4904    4909    4930 1       1.21870000e+02    5.06012960e+02
   4904    4933    4932 1       1.10210000e+02    5.31033280e+02
   4904    4933    4934 1       1.21870000e+02    5.06012960e+02
   4905    4904    4909 1       1.13070000e+02    5.03000480e+02
   4905    4904    4933 1       1.13070000e+02    5.03000480e+02
   4906    4905    4907 1       1.07730000e+02    2.99574400e+02
   4906    4905    4908 1       1.07730000e+02    2.99574400e+02
   4907    4905    4908 1       1.07730000e+02    2.99574400e+02
   4909    4904    4933 1       1.12520000e+02    5.08021280e+02
   4909    4910    4911 1       1.18410000e+02    5.33794720e+02
   4909    4910    4932 1       1.21100000e+02    5.12958400e+02
   4909    4930    4929 1       1.20020000e+02    5.32790560e+02
   4909    4930    4931 1       1.19880000e+02    3.75723200e+02
   4910    4909    4930 1       1.20730000e+02    5.29945440e+02
   4910    4911    4912 1       1.19820000e+02    3.74300640e+02
   4910    4911    4913 1       1.20730000e+02    5.29945440e+02
   4910    4932    4933 1       1.21100000e+02    5.12958400e+02
   4910    4932    4967 1       1.21100000e+02    5.12958400e+02
   4911    4910    4932 1       1.21100000e+02    5.12958400e+02
   4911    4913    4914 1       1.20640000e+02    5.08439680e+02
   4911    4913    4929 1       1.20020000e+02    5.32790560e+02
   4912    4911    4913 1       1.19880000e+02    3.75723200e+02
   4913    4914    4915 1       1.14530000e+02    3.58485120e+02
   4913    4914    4916 1       1.16810000e+02    4.91368960e+02
   4913    4914    4924 1       1.24830000e+02    4.77729120e+02
   4913    4929    4916 1       1.20640000e+02    5.08439680e+02
   4913    4929    4930 1       1.20020000e+02    5.32790560e+02
   4914    4913    4929 1       1.20640000e+02    5.08439680e+02
   4914    4916    4917 1       1.14760000e+02    3.49364000e+02
   4914    4916    4918 1       1.22490000e+02    4.75804480e+02
   4914    4916    4929 1       1.16810000e+02    4.91368960e+02
   4914    4924    4922 1       9.60300000e+01    5.40070720e+02
   4914    4924    4925 1       1.12000000e+02    3.56811520e+02
   4914    4924    4926 1       1.03090000e+02    5.20322240e+02
   4915    4914    4916 1       1.14760000e+02    3.49364000e+02
   4915    4914    4924 1       1.13690000e+02    3.54217440e+02
   4916    4914    4924 1       1.22490000e+02    4.75804480e+02
   4916    4918    4919 1       1.12000000e+02    3.56811520e+02
   4916    4918    4920 1       9.60300000e+01    5.40070720e+02
   4916    4918    4926 1       1.03090000e+02    5.20322240e+02
   4916    4929    4930 1       1.20640000e+02    5.08439680e+02
   4917    4916    4918 1       1.13690000e+02    3.54217440e+02
   4917    4916    4929 1       1.14530000e+02    3.58485120e+02
   4918    4916    4929 1       1.24830000e+02    4.77729120e+02
   4918    4920    1640 1       1.24830000e+02    4.77729120e+02
   4918    4920    4921 1       1.13690000e+02    3.54217440e+02
   4918    4920    4922 1       1.22490000e+02    4.75804480e+02
   4918    4926    4924 1       1.03830000e+02    5.17477120e+02
   4918    4926    4927 1       1.11170000e+02    3.56895200e+02
   4918    4926    4928 1       1.11170000e+02    3.56895200e+02
   4919    4918    4926 1       1.11170000e+02    3.56895200e+02
   4920    4918    4919 1       1.12000000e+02    3.56811520e+02
   4920    4922    4923 1       1.14760000e+02    3.49364000e+02
   4922    4920    4921 1       1.14760000e+02    3.49364000e+02
   4922    4924    4925 1       1.12000000e+02    3.56811520e+02
   4924    4922    1641 1       1.24830000e+02    4.77729120e+02
   4924    4922    4920 1       1.22490000e+02    4.75804480e+02
   4924    4922    4923 1       1.13690000e+02    3.54217440e+02
   4924    4926    4927 1       1.11170000e+02    3.56895200e+02
   4924    4926    4928 1       1.11170000e+02    3.56895200e+02
   4925    4924    4926 1       1.11170000e+02    3.56895200e+02
   4926    4918    4920 1       1.03090000e+02    5.20322240e+02
   4926    4924    4922 1       1.03090000e+02    5.20322240e+02
   4927    4926    4928 1       1.07220000e+02    3.00494880e+02
   4929    4930    4931 1       1.19880000e+02    3.75723200e+02
   4932    4933    4934 1       1.20730000e+02    5.29945440e+02
   4932    4967    4966 1       1.20730000e+02    5.29945440e+02
   4932    4967    4968 1       1.19820000e+02    3.74300640e+02
   4933    4932    4967 1       1.18410000e+02    5.33794720e+02
   4933    4934    4935 1       1.19880000e+02    3.75723200e+02
   4933    4934    4936 1       1.20020000e+02    5.32790560e+02
   4934    4936    4937 1       1.20640000e+02    5.08439680e+02
   4934    4936    4966 1       1.20020000e+02    5.32790560e+02
   4935    4934    4936 1       1.19880000e+02    3.75723200e+02
   4936    4937    4938 1       1.14530000e+02    3.58485120e+02
   4936    4937    4939 1       1.16810000e+02    4.91368960e+02
   4936    4937    4961 1       1.24830000e+02    4.77729120e+02
   4936    4966    4939 1       1.20640000e+02    5.08439680e+02
   4936    4966    4967 1       1.20020000e+02    5.32790560e+02
   4937    4936    4966 1       1.20640000e+02    5.08439680e+02
   4937    4939    4940 1       1.14760000e+02    3.49364000e+02
   4937    4939    4941 1       1.22490000e+02    4.75804480e+02
   4937    4939    4966 1       1.16810000e+02    4.91368960e+02
   4937    4961    4959 1       9.60300000e+01    5.40070720e+02
   4937    4961    4962 1       1.12000000e+02    3.56811520e+02
   4937    4961    4963 1       1.03090000e+02    5.20322240e+02
   4938    4937    4939 1       1.14760000e+02    3.49364000e+02
   4938    4937    4961 1       1.13690000e+02    3.54217440e+02
   4939    4937    4961 1       1.22490000e+02    4.75804480e+02
   4939    4941    4942 1       1.12000000e+02    3.56811520e+02
   4939    4941    4943 1       9.60300000e+01    5.40070720e+02
   4939    4941    4963 1       1.03090000e+02    5.20322240e+02
   4939    4966    4967 1       1.20640000e+02    5.08439680e+02
   4940    4939    4941 1       1.13690000e+02    3.54217440e+02
   4940    4939    4966 1       1.14530000e+02    3.58485120e+02
   4941    4939    4966 1       1.24830000e+02    4.77729120e+02
   4941    4943    4944 1       1.13690000e+02    3.54217440e+02
   4941    4943    4945 1       1.24830000e+02    4.77729120e+02
   4941    4943    4959 1       1.22490000e+02    4.75804480e+02
   4941    4963    4961 1       1.03830000e+02    5.17477120e+02
   4941    4963    4964 1       1.11170000e+02    3.56895200e+02
   4941    4963    4965 1       1.11170000e+02    3.56895200e+02
   4942    4941    4943 1       1.12000000e+02    3.56811520e+02
   4942    4941    4963 1       1.11170000e+02    3.56895200e+02
   4943    4941    4963 1       1.03090000e+02    5.20322240e+02
   4943    4945    4946 1       1.20640000e+02    5.08439680e+02
   4943    4945    4954 1       1.20640000e+02    5.08439680e+02
   4943    4959    4946 1       1.16810000e+02    4.91368960e+02
   4943    4959    4960 1       1.14760000e+02    3.49364000e+02
   4943    4959    4961 1       1.22490000e+02    4.75804480e+02
   4944    4943    4945 1       1.14530000e+02    3.58485120e+02
   4944    4943    4959 1       1.14760000e+02    3.49364000e+02
   4945    4943    4959 1       1.16810000e+02    4.91368960e+02
   4945    4946    4947 1       1.20020000e+02    5.32790560e+02
   4945    4946    4959 1       1.20640000e+02    5.08439680e+02
   4945    4954    4953 1       1.20020000e+02    5.32790560e+02
   4945    4954    4955 1       1.20830000e+02    5.08272320e+02
   4946    4945    4954 1       1.20020000e+02    5.32790560e+02
   4946    4947    4948 1       1.20830000e+02    5.08272320e+02
   4946    4947    4952 1       1.20020000e+02    5.32790560e+02
   4946    4959    4960 1       1.14530000e+02    3.58485120e+02
   4946    4959    4961 1       1.24830000e+02    4.77729120e+02
   4947    4946    4959 1       1.20640000e+02    5.08439680e+02
   4947    4948    4949 1       1.10630000e+02    3.64928480e+02
   4947    4948    4950 1       1.10630000e+02    3.64928480e+02
   4947    4948    4951 1       1.10630000e+02    3.64928480e+02
   4947    4952    4577 1       1.20640000e+02    5.08439680e+02
   4947    4952    4953 1       1.20020000e+02    5.32790560e+02
   4948    4947    4952 1       1.20830000e+02    5.08272320e+02
   4949    4948    4950 1       1.07730000e+02    2.99574400e+02
   4949    4948    4951 1       1.07730000e+02    2.99574400e+02
   4950    4948    4951 1       1.07730000e+02    2.99574400e+02
   4952    4577    4575 1       1.16810000e+02    4.91368960e+02
   4952    4577    4578 1       1.14530000e+02    3.58485120e+02
   4952    4953    4575 1       1.20640000e+02    5.08439680e+02
   4952    4953    4954 1       1.20020000e+02    5.32790560e+02
   4953    4575    4576 1       1.14530000e+02    3.58485120e+02
   4953    4575    4577 1       1.16810000e+02    4.91368960e+02
   4953    4952    4577 1       1.20640000e+02    5.08439680e+02
   4954    4953    4575 1       1.20640000e+02    5.08439680e+02
   4954    4955    4956 1       1.10630000e+02    3.64928480e+02
   4954    4955    4957 1       1.10630000e+02    3.64928480e+02
   4954    4955    4958 1       1.10630000e+02    3.64928480e+02
   4955    4954    4953 1       1.20830000e+02    5.08272320e+02
   4956    4955    4957 1       1.07730000e+02    2.99574400e+02
   4956    4955    4958 1       1.07730000e+02    2.99574400e+02
   4957    4955    4958 1       1.07730000e+02    2.99574400e+02
   4959    4961    4962 1       1.12000000e+02    3.56811520e+02
   4959    4961    4963 1       1.03090000e+02    5.20322240e+02
   4960    4959    4961 1       1.13690000e+02    3.54217440e+02
   4961    4963    4964 1       1.11170000e+02    3.56895200e+02
   4961    4963    4965 1       1.11170000e+02    3.56895200e+02
   4962    4961    4963 1       1.11170000e+02    3.56895200e+02
   4964    4963    4965 1       1.07220000e+02    3.00494880e+02
   4966    4967    4968 1       1.19880000e+02    3.75723200e+02
   4969    4973    4974 1       1.10280000e+02    5.05761920e+02
   4969    4973    4978 1       1.13070000e+02    5.03000480e+02
   4969    4973    5002 1       1.13070000e+02    5.03000480e+02
   4970    4969    4971 1       1.07730000e+02    2.99574400e+02
   4970    4969    4972 1       1.07730000e+02    2.99574400e+02
   4970    4969    4973 1       1.10530000e+02    3.60326080e+02
   4971    4969    4972 1       1.07730000e+02    2.99574400e+02
   4971    4969    4973 1       1.10530000e+02    3.60326080e+02
   4972    4969    4973 1       1.10530000e+02    3.60326080e+02
   4973    4974    4975 1       1.10530000e+02    3.60326080e+02
   4973    4974    4976 1       1.10530000e+02    3.60326080e+02
   4973    4974    4977 1       1.10530000e+02    3.60326080e+02
   4973    4978    4979 1       1.10210000e+02    5.31033280e+02
   4973    4978    4999 1       1.21870000e+02    5.06012960e+02
   4973    5002    5001 1       1.10210000e+02    5.31033280e+02
   4973    5002    5003 1       1.21870000e+02    5.06012960e+02
   4974    4973    4978 1       1.13070000e+02    5.03000480e+02
   4974    4973    5002 1       1.13070000e+02    5.03000480e+02
   4975    4974    4976 1       1.07730000e+02    2.99574400e+02
   4975    4974    4977 1       1.07730000e+02    2.99574400e+02
   4976    4974    4977 1       1.07730000e+02    2.99574400e+02
   4978    4973    5002 1       1.12520000e+02    5.08021280e+02
   4978    4979    4980 1       1.18410000e+02    5.33794720e+02
   4978    4979    5001 1       1.21100000e+02    5.12958400e+02
   4978    4999    4998 1       1.20020000e+02    5.32790560e+02
   4978    4999    5000 1       1.19880000e+02    3.75723200e+02
   4979    4978    4999 1       1.20730000e+02    5.29945440e+02
   4979    4980    4981 1       1.19820000e+02    3.74300640e+02
   4979    4980    4982 1       1.20730000e+02    5.29945440e+02
   4979    5001    5002 1       1.21100000e+02    5.12958400e+02
   4979    5001    5036 1       1.21100000e+02    5.12958400e+02
   4980    4979    5001 1       1.21100000e+02    5.12958400e+02
   4980    4982    4983 1       1.20640000e+02    5.08439680e+02
   4980    4982    4998 1       1.20020000e+02    5.32790560e+02
   4981    4980    4982 1       1.19880000e+02    3.75723200e+02
   4982    4983    4984 1       1.14530000e+02    3.58485120e+02
   4982    4983    4985 1       1.16810000e+02    4.91368960e+02
   4982    4983    4993 1       1.24830000e+02    4.77729120e+02
   4982    4998    4985 1       1.20640000e+02    5.08439680e+02
   4982    4998    4999 1       1.20020000e+02    5.32790560e+02
   4983    4982    4998 1       1.20640000e+02    5.08439680e+02
   4983    4985    4986 1       1.14760000e+02    3.49364000e+02
   4983    4985    4987 1       1.22490000e+02    4.75804480e+02
   4983    4985    4998 1       1.16810000e+02    4.91368960e+02
   4983    4993    4991 1       9.60300000e+01    5.40070720e+02
   4983    4993    4994 1       1.12000000e+02    3.56811520e+02
   4983    4993    4995 1       1.03090000e+02    5.20322240e+02
   4984    4983    4985 1       1.14760000e+02    3.49364000e+02
   4984    4983    4993 1       1.13690000e+02    3.54217440e+02
   4985    4983    4993 1       1.22490000e+02    4.75804480e+02
   4985    4987    4988 1       1.12000000e+02    3.56811520e+02
   4985    4987    4989 1       9.60300000e+01    5.40070720e+02
   4985    4987    4995 1       1.03090000e+02    5.20322240e+02
   4985    4998    4999 1       1.20640000e+02    5.08439680e+02
   4986    4985    4987 1       1.13690000e+02    3.54217440e+02
   4986    4985    4998 1       1.14530000e+02    3.58485120e+02
   4987    4985    4998 1       1.24830000e+02    4.77729120e+02
   4987    4989    4331 1       1.24830000e+02    4.77729120e+02
   4987    4989    4990 1       1.13690000e+02    3.54217440e+02
   4987    4989    4991 1       1.22490000e+02    4.75804480e+02
   4987    4995    4993 1       1.03830000e+02    5.17477120e+02
   4987    4995    4996 1       1.11170000e+02    3.56895200e+02
   4987    4995    4997 1       1.11170000e+02    3.56895200e+02
   4988    4987    4995 1       1.11170000e+02    3.56895200e+02
   4989    4987    4988 1       1.12000000e+02    3.56811520e+02
   4989    4991    4992 1       1.14760000e+02    3.49364000e+02
   4991    4989    4990 1       1.14760000e+02    3.49364000e+02
   4991    4993    4994 1       1.12000000e+02    3.56811520e+02
   4993    4991    4332 1       1.24830000e+02    4.77729120e+02
   4993    4991    4989 1       1.22490000e+02    4.75804480e+02
   4993    4991    4992 1       1.13690000e+02    3.54217440e+02
   4993    4995    4996 1       1.11170000e+02    3.56895200e+02
   4993    4995    4997 1       1.11170000e+02    3.56895200e+02
   4994    4993    4995 1       1.11170000e+02    3.56895200e+02
   4995    4987    4989 1       1.03090000e+02    5.20322240e+02
   4995    4993    4991 1       1.03090000e+02    5.20322240e+02
   4996    4995    4997 1       1.07220000e+02    3.00494880e+02
   4998    4999    5000 1       1.19880000e+02    3.75723200e+02
   5001    5002    5003 1       1.20730000e+02    5.29945440e+02
   5001    5036    5035 1       1.20730000e+02    5.29945440e+02
   5001    5036    5037 1       1.19820000e+02    3.74300640e+02
   5002    5001    5036 1       1.18410000e+02    5.33794720e+02
   5002    5003    5004 1       1.19880000e+02    3.75723200e+02
   5002    5003    5005 1       1.20020000e+02    5.32790560e+02
   5003    5005    5006 1       1.20640000e+02    5.08439680e+02
   5003    5005    5035 1       1.20020000e+02    5.32790560e+02
   5004    5003    5005 1       1.19880000e+02    3.75723200e+02
   5005    5006    5007 1       1.14530000e+02    3.58485120e+02
   5005    5006    5008 1       1.16810000e+02    4.91368960e+02
   5005    5006    5030 1       1.24830000e+02    4.77729120e+02
   5005    5035    5008 1       1.20640000e+02    5.08439680e+02
   5005    5035    5036 1       1.20020000e+02    5.32790560e+02
   5006    5005    5035 1       1.20640000e+02    5.08439680e+02
   5006    5008    5009 1       1.14760000e+02    3.49364000e+02
   5006    5008    5010 1       1.22490000e+02    4.75804480e+02
   5006    5008    5035 1       1.16810000e+02    4.91368960e+02
   5006    5030    5028 1       9.60300000e+01    5.40070720e+02
   5006    5030    5031 1       1.12000000e+02    3.56811520e+02
   5006    5030    5032 1       1.03090000e+02    5.20322240e+02
   5007    5006    5008 1       1.14760000e+02    3.49364000e+02
   5007    5006    5030 1       1.13690000e+02    3.54217440e+02
   5008    5006    5030 1       1.22490000e+02    4.75804480e+02
   5008    5010    5011 1       1.12000000e+02    3.56811520e+02
   5008    5010    5012 1       9.60300000e+01    5.40070720e+02
   5008    5010    5032 1       1.03090000e+02    5.20322240e+02
   5008    5035    5036 1       1.20640000e+02    5.08439680e+02
   5009    5008    5010 1       1.13690000e+02    3.54217440e+02
   5009    5008    5035 1       1.14530000e+02    3.58485120e+02
   5010    5008    5035 1       1.24830000e+02    4.77729120e+02
   5010    5012    5013 1       1.13690000e+02    3.54217440e+02
   5010    5012    5014 1       1.24830000e+02    4.77729120e+02
   5010    5012    5028 1       1.22490000e+02    4.75804480e+02
   5010    5032    5030 1       1.03830000e+02    5.17477120e+02
   5010    5032    5033 1       1.11170000e+02    3.56895200e+02
   5010    5032    5034 1       1.11170000e+02    3.56895200e+02
   5011    5010    5012 1       1.12000000e+02    3.56811520e+02
   5011    5010    5032 1       1.11170000e+02    3.56895200e+02
   5012    5010    5032 1       1.03090000e+02    5.20322240e+02
   5012    5014    5015 1       1.20640000e+02    5.08439680e+02
   5012    5014    5023 1       1.20640000e+02    5.08439680e+02
   5012    5028    5015 1       1.16810000e+02    4.91368960e+02
   5012    5028    5029 1       1.14760000e+02    3.49364000e+02
   5012    5028    5030 1       1.22490000e+02    4.75804480e+02
   5013    5012    5014 1       1.14530000e+02    3.58485120e+02
   5013    5012    5028 1       1.14760000e+02    3.49364000e+02
   5014    5012    5028 1       1.16810000e+02    4.91368960e+02
   5014    5015    5016 1       1.20020000e+02    5.32790560e+02
   5014    5015    5028 1       1.20640000e+02    5.08439680e+02
   5014    5023    5022 1       1.20020000e+02    5.32790560e+02
   5014    5023    5024 1       1.20830000e+02    5.08272320e+02
   5015    5014    5023 1       1.20020000e+02    5.32790560e+02
   5015    5016    5017 1       1.20830000e+02    5.08272320e+02
   5015    5016    5021 1       1.20020000e+02    5.32790560e+02
   5015    5028    5029 1       1.14530000e+02    3.58485120e+02
   5015    5028    5030 1       1.24830000e+02    4.77729120e+02
   5016    5015    5028 1       1.20640000e+02    5.08439680e+02
   5016    5017    5018 1       1.10630000e+02    3.64928480e+02
   5016    5017    5019 1       1.10630000e+02    3.64928480e+02
   5016    5017    5020 1       1.10630000e+02    3.64928480e+02
   5016    5021    2990 1       1.20640000e+02    5.08439680e+02
   5016    5021    5022 1       1.20020000e+02    5.32790560e+02
   5017    5016    5021 1       1.20830000e+02    5.08272320e+02
   5018    5017    5019 1       1.07730000e+02    2.99574400e+02
   5018    5017    5020 1       1.07730000e+02    2.99574400e+02
   5019    5017    5020 1       1.07730000e+02    2.99574400e+02
   5021    2990    2988 1       1.16810000e+02    4.91368960e+02
   5021    2990    2991 1       1.14530000e+02    3.58485120e+02
   5021    5022    2988 1       1.20640000e+02    5.08439680e+02
   5021    5022    5023 1       1.20020000e+02    5.32790560e+02
   5022    2988    2989 1       1.14530000e+02    3.58485120e+02
   5022    2988    2990 1       1.16810000e+02    4.91368960e+02
   5022    5021    2990 1       1.20640000e+02    5.08439680e+02
   5023    5022    2988 1       1.20640000e+02    5.08439680e+02
   5023    5024    5025 1       1.10630000e+02    3.64928480e+02
   5023    5024    5026 1       1.10630000e+02    3.64928480e+02
   5023    5024    5027 1       1.10630000e+02    3.64928480e+02
   5024    5023    5022 1       1.20830000e+02    5.08272320e+02
   5025    5024    5026 1       1.07730000e+02    2.99574400e+02
   5025    5024    5027 1       1.07730000e+02    2.99574400e+02
   5026    5024    5027 1       1.07730000e+02    2.99574400e+02
   5028    5030    5031 1       1.12000000e+02    3.56811520e+02
   5028    5030    5032 1       1.03090000e+02    5.20322240e+02
   5029    5028    5030 1       1.13690000e+02    3.54217440e+02
   5030    5032    5033 1       1.11170000e+02    3.56895200e+02
   5030    5032    5034 1       1.11170000e+02    3.56895200e+02
   5031    5030    5032 1       1.11170000e+02    3.56895200e+02
   5033    5032    5034 1       1.07220000e+02    3.00494880e+02
   5035    5036    5037 1       1.19880000e+02    3.75723200e+02
   5038    5042    5043 1       1.10280000e+02    5.05761920e+02
   5038    5042    5047 1       1.13070000e+02    5.03000480e+02
   5038    5042    5071 1       1.13070000e+02    5.03000480e+02
   5039    5038    5040 1       1.07730000e+02    2.99574400e+02
   5039    5038    5041 1       1.07730000e+02    2.99574400e+02
   5039    5038    5042 1       1.10530000e+02    3.60326080e+02
   5040    5038    5041 1       1.07730000e+02    2.99574400e+02
   5040    5038    5042 1       1.10530000e+02    3.60326080e+02
   5041    5038    5042 1       1.10530000e+02    3.60326080e+02
   5042    5043    5044 1       1.10530000e+02    3.60326080e+02
   5042    5043    5045 1       1.10530000e+02    3.60326080e+02
   5042    5043    5046 1       1.10530000e+02    3.60326080e+02
   5042    5047    5048 1       1.10210000e+02    5.31033280e+02
   5042    5047    5068 1       1.21870000e+02    5.06012960e+02
   5042    5071    5070 1       1.10210000e+02    5.31033280e+02
   5042    5071    5072 1       1.21870000e+02    5.06012960e+02
   5043    5042    5047 1       1.13070000e+02    5.03000480e+02
   5043    5042    5071 1       1.13070000e+02    5.03000480e+02
   5044    5043    5045 1       1.07730000e+02    2.99574400e+02
   5044    5043    5046 1       1.07730000e+02    2.99574400e+02
   5045    5043    5046 1       1.07730000e+02    2.99574400e+02
   5047    5042    5071 1       1.12520000e+02    5.08021280e+02
   5047    5048    5049 1       1.18410000e+02    5.33794720e+02
   5047    5048    5070 1       1.21100000e+02    5.12958400e+02
   5047    5068    5067 1       1.20020000e+02    5.32790560e+02
   5047    5068    5069 1       1.19880000e+02    3.75723200e+02
   5048    5047    5068 1       1.20730000e+02    5.29945440e+02
   5048    5049    5050 1       1.19820000e+02    3.74300640e+02
   5048    5049    5051 1       1.20730000e+02    5.29945440e+02
   5048    5070    5071 1       1.21100000e+02    5.12958400e+02
   5048    5070    5105 1       1.21100000e+02    5.12958400e+02
   5049    5048    5070 1       1.21100000e+02    5.12958400e+02
   5049    5051    5052 1       1.20640000e+02    5.08439680e+02
   5049    5051    5067 1       1.20020000e+02    5.32790560e+02
   5050    5049    5051 1       1.19880000e+02    3.75723200e+02
   5051    5052    5053 1       1.14530000e+02    3.58485120e+02
   5051    5052    5054 1       1.16810000e+02    4.91368960e+02
   5051    5052    5062 1       1.24830000e+02    4.77729120e+02
   5051    5067    5054 1       1.20640000e+02    5.08439680e+02
   5051    5067    5068 1       1.20020000e+02    5.32790560e+02
   5052    5051    5067 1       1.20640000e+02    5.08439680e+02
   5052    5054    5055 1       1.14760000e+02    3.49364000e+02
   5052    5054    5056 1       1.22490000e+02    4.75804480e+02
   5052    5054    5067 1       1.16810000e+02    4.91368960e+02
   5052    5062    5060 1       9.60300000e+01    5.40070720e+02
   5052    5062    5063 1       1.12000000e+02    3.56811520e+02
   5052    5062    5064 1       1.03090000e+02    5.20322240e+02
   5053    5052    5054 1       1.14760000e+02    3.49364000e+02
   5053    5052    5062 1       1.13690000e+02    3.54217440e+02
   5054    5052    5062 1       1.22490000e+02    4.75804480e+02
   5054    5056    5057 1       1.12000000e+02    3.56811520e+02
   5054    5056    5058 1       9.60300000e+01    5.40070720e+02
   5054    5056    5064 1       1.03090000e+02    5.20322240e+02
   5054    5067    5068 1       1.20640000e+02    5.08439680e+02
   5055    5054    5056 1       1.13690000e+02    3.54217440e+02
   5055    5054    5067 1       1.14530000e+02    3.58485120e+02
   5056    5054    5067 1       1.24830000e+02    4.77729120e+02
   5056    5058    3780 1       1.24830000e+02    4.77729120e+02
   5056    5058    5059 1       1.13690000e+02    3.54217440e+02
   5056    5058    5060 1       1.22490000e+02    4.75804480e+02
   5056    5064    5062 1       1.03830000e+02    5.17477120e+02
   5056    5064    5065 1       1.11170000e+02    3.56895200e+02
   5056    5064    5066 1       1.11170000e+02    3.56895200e+02
   5057    5056    5064 1       1.11170000e+02    3.56895200e+02
   5058    5056    5057 1       1.12000000e+02    3.56811520e+02
   5058    5060    5061 1       1.14760000e+02    3.49364000e+02
   5060    5058    5059 1       1.14760000e+02    3.49364000e+02
   5060    5062    5063 1       1.12000000e+02    3.56811520e+02
   5062    5060    3779 1       1.24830000e+02    4.77729120e+02
   5062    5060    5058 1       1.22490000e+02    4.75804480e+02
   5062    5060    5061 1       1.13690000e+02    3.54217440e+02
   5062    5064    5065 1       1.11170000e+02    3.56895200e+02
   5062    5064    5066 1       1.11170000e+02    3.56895200e+02
   5063    5062    5064 1       1.11170000e+02    3.56895200e+02
   5064    5056    5058 1       1.03090000e+02    5.20322240e+02
   5064    5062    5060 1       1.03090000e+02    5.20322240e+02
   5065    5064    5066 1       1.07220000e+02    3.00494880e+02
   5067    5068    5069 1       1.19880000e+02    3.75723200e+02
   5070    5071    5072 1       1.20730000e+02    5.29945440e+02
   5070    5105    5104 1       1.20730000e+02    5.29945440e+02
   5070    5105    5106 1       1.19820000e+02    3.74300640e+02
   5071    5070    5105 1       1.18410000e+02    5.33794720e+02
   5071    5072    5073 1       1.19880000e+02    3.75723200e+02
   5071    5072    5074 1       1.20020000e+02    5.32790560e+02
   5072    5074    5075 1       1.20640000e+02    5.08439680e+02
   5072    5074    5104 1       1.20020000e+02    5.32790560e+02
   5073    5072    5074 1       1.19880000e+02    3.75723200e+02
   5074    5075    5076 1       1.14530000e+02    3.58485120e+02
   5074    5075    5077 1       1.16810000e+02    4.91368960e+02
   5074    5075    5099 1       1.24830000e+02    4.77729120e+02
   5074    5104    5077 1       1.20640000e+02    5.08439680e+02
   5074    5104    5105 1       1.20020000e+02    5.32790560e+02
   5075    5074    5104 1       1.20640000e+02    5.08439680e+02
   5075    5077    5078 1       1.14760000e+02    3.49364000e+02
   5075    5077    5079 1       1.22490000e+02    4.75804480e+02
   5075    5077    5104 1       1.16810000e+02    4.91368960e+02
   5075    5099    5097 1       9.60300000e+01    5.40070720e+02
   5075    5099    5100 1       1.12000000e+02    3.56811520e+02
   5075    5099    5101 1       1.03090000e+02    5.20322240e+02
   5076    5075    5077 1       1.14760000e+02    3.49364000e+02
   5076    5075    5099 1       1.13690000e+02    3.54217440e+02
   5077    5075    5099 1       1.22490000e+02    4.75804480e+02
   5077    5079    5080 1       1.12000000e+02    3.56811520e+02
   5077    5079    5081 1       9.60300000e+01    5.40070720e+02
   5077    5079    5101 1       1.03090000e+02    5.20322240e+02
   5077    5104    5105 1       1.20640000e+02    5.08439680e+02
   5078    5077    5079 1       1.13690000e+02    3.54217440e+02
   5078    5077    5104 1       1.14530000e+02    3.58485120e+02
   5079    5077    5104 1       1.24830000e+02    4.77729120e+02
   5079    5081    5082 1       1.13690000e+02    3.54217440e+02
   5079    5081    5083 1       1.24830000e+02    4.77729120e+02
   5079    5081    5097 1       1.22490000e+02    4.75804480e+02
   5079    5101    5099 1       1.03830000e+02    5.17477120e+02
   5079    5101    5102 1       1.11170000e+02    3.56895200e+02
   5079    5101    5103 1       1.11170000e+02    3.56895200e+02
   5080    5079    5081 1       1.12000000e+02    3.56811520e+02
   5080    5079    5101 1       1.11170000e+02    3.56895200e+02
   5081    5079    5101 1       1.03090000e+02    5.20322240e+02
   5081    5083    5084 1       1.20640000e+02    5.08439680e+02
   5081    5083    5092 1       1.20640000e+02    5.08439680e+02
   5081    5097    5084 1       1.16810000e+02    4.91368960e+02
   5081    5097    5098 1       1.14760000e+02    3.49364000e+02
   5081    5097    5099 1       1.22490000e+02    4.75804480e+02
   5082    5081    5083 1       1.14530000e+02    3.58485120e+02
   5082    5081    5097 1       1.14760000e+02    3.49364000e+02
   5083    5081    5097 1       1.16810000e+02    4.91368960e+02
   5083    5084    5085 1       1.20020000e+02    5.32790560e+02
   5083    5084    5097 1       1.20640000e+02    5.08439680e+02
   5083    5092    5091 1       1.20020000e+02    5.32790560e+02
   5083    5092    5093 1       1.20830000e+02    5.08272320e+02
   5084    5083    5092 1       1.20020000e+02    5.32790560e+02
   5084    5085    5086 1       1.20830000e+02    5.08272320e+02
   5084    5085    5090 1       1.20020000e+02    5.32790560e+02
   5084    5097    5098 1       1.14530000e+02    3.58485120e+02
   5084    5097    5099 1       1.24830000e+02    4.77729120e+02
   5085    5084    5097 1       1.20640000e+02    5.08439680e+02
   5085    5086    5087 1       1.10630000e+02    3.64928480e+02
   5085    5086    5088 1       1.10630000e+02    3.64928480e+02
   5085    5086    5089 1       1.10630000e+02    3.64928480e+02
   5085    5090    2231 1       1.20640000e+02    5.08439680e+02
   5085    5090    5091 1       1.20020000e+02    5.32790560e+02
   5086    5085    5090 1       1.20830000e+02    5.08272320e+02
   5087    5086    5088 1       1.07730000e+02    2.99574400e+02
   5087    5086    5089 1       1.07730000e+02    2.99574400e+02
   5088    5086    5089 1       1.07730000e+02    2.99574400e+02
   5090    2231    2229 1       1.16810000e+02    4.91368960e+02
   5090    2231    2232 1       1.14530000e+02    3.58485120e+02
   5090    5091    2229 1       1.20640000e+02    5.08439680e+02
   5090    5091    5092 1       1.20020000e+02    5.32790560e+02
   5091    2229    2230 1       1.14530000e+02    3.58485120e+02
   5091    2229    2231 1       1.16810000e+02    4.91368960e+02
   5091    5090    2231 1       1.20640000e+02    5.08439680e+02
   5092    5091    2229 1       1.20640000e+02    5.08439680e+02
   5092    5093    5094 1       1.10630000e+02    3.64928480e+02
   5092    5093    5095 1       1.10630000e+02    3.64928480e+02
   5092    5093    5096 1       1.10630000e+02    3.64928480e+02
   5093    5092    5091 1       1.20830000e+02    5.08272320e+02
   5094    5093    5095 1       1.07730000e+02    2.99574400e+02
   5094    5093    5096 1       1.07730000e+02    2.99574400e+02
   5095    5093    5096 1       1.07730000e+02    2.99574400e+02
   5097    5099    5100 1       1.12000000e+02    3.56811520e+02
   5097    5099    5101 1       1.03090000e+02    5.20322240e+02
   5098    5097    5099 1       1.13690000e+02    3.54217440e+02
   5099    5101    5102 1       1.11170000e+02    3.56895200e+02
   5099    5101    5103 1       1.11170000e+02    3.56895200e+02
   5100    5099    5101 1       1.11170000e+02    3.56895200e+02
   5102    5101    5103 1       1.07220000e+02    3.00494880e+02
   5104    5105    5106 1       1.19880000e+02    3.75723200e+02
   5107    5111    5112 1       1.10280000e+02    5.05761920e+02
   5107    5111    5116 1       1.13070000e+02    5.03000480e+02
   5107    5111    5140 1       1.13070000e+02    5.03000480e+02
   5108    5107    5109 1       1.07730000e+02    2.99574400e+02
   5108    5107    5110 1       1.07730000e+02    2.99574400e+02
   5108    5107    5111 1       1.10530000e+02    3.60326080e+02
   5109    5107    5110 1       1.07730000e+02    2.99574400e+02
   5109    5107    5111 1       1.10530000e+02    3.60326080e+02
   5110    5107    5111 1       1.10530000e+02    3.60326080e+02
   5111    5112    5113 1       1.10530000e+02    3.60326080e+02
   5111    5112    5114 1       1.10530000e+02    3.60326080e+02
   5111    5112    5115 1       1.10530000e+02    3.60326080e+02
   5111    5116    5117 1       1.10210000e+02    5.31033280e+02
   5111    5116    5137 1       1.21870000e+02    5.06012960e+02
   5111    5140    5139 1       1.10210000e+02    5.31033280e+02
   5111    5140    5141 1       1.21870000e+02    5.06012960e+02
   5112    5111    5116 1       1.13070000e+02    5.03000480e+02
   5112    5111    5140 1       1.13070000e+02    5.03000480e+02
   5113    5112    5114 1       1.07730000e+02    2.99574400e+02
   5113    5112    5115 1       1.07730000e+02    2.99574400e+02
   5114    5112    5115 1       1.07730000e+02    2.99574400e+02
   5116    5111    5140 1       1.12520000e+02    5.08021280e+02
   5116    5117    5118 1       1.18410000e+02    5.33794720e+02
   5116    5117    5139 1       1.21100000e+02    5.12958400e+02
   5116    5137    5136 1       1.20020000e+02    5.32790560e+02
   5116    5137    5138 1       1.19880000e+02    3.75723200e+02
   5117    5116    5137 1       1.20730000e+02    5.29945440e+02
   5117    5118    5119 1       1.19820000e+02    3.74300640e+02
   5117    5118    5120 1       1.20730000e+02    5.29945440e+02
   5117    5139    5140 1       1.21100000e+02    5.12958400e+02
   5117    5139    5174 1       1.21100000e+02    5.12958400e+02
   5118    5117    5139 1       1.21100000e+02    5.12958400e+02
   5118    5120    5121 1       1.20640000e+02    5.08439680e+02
   5118    5120    5136 1       1.20020000e+02    5.32790560e+02
   5119    5118    5120 1       1.19880000e+02    3.75723200e+02
   5120    5121    5122 1       1.14530000e+02    3.58485120e+02
   5120    5121    5123 1       1.16810000e+02    4.91368960e+02
   5120    5121    5131 1       1.24830000e+02    4.77729120e+02
   5120    5136    5123 1       1.20640000e+02    5.08439680e+02
   5120    5136    5137 1       1.20020000e+02    5.32790560e+02
   5121    5120    5136 1       1.20640000e+02    5.08439680e+02
   5121    5123    5124 1       1.14760000e+02    3.49364000e+02
   5121    5123    5125 1       1.22490000e+02    4.75804480e+02
   5121    5123    5136 1       1.16810000e+02    4.91368960e+02
   5121    5131    5129 1       9.60300000e+01    5.40070720e+02
   5121    5131    5132 1       1.12000000e+02    3.56811520e+02
   5121    5131    5133 1       1.03090000e+02    5.20322240e+02
   5122    5121    5123 1       1.14760000e+02    3.49364000e+02
   5122    5121    5131 1       1.13690000e+02    3.54217440e+02
   5123    5121    5131 1       1.22490000e+02    4.75804480e+02
   5123    5125    5126 1       1.12000000e+02    3.56811520e+02
   5123    5125    5127 1       9.60300000e+01    5.40070720e+02
   5123    5125    5133 1       1.03090000e+02    5.20322240e+02
   5123    5136    5137 1       1.20640000e+02    5.08439680e+02
   5124    5123    5125 1       1.13690000e+02    3.54217440e+02
   5124    5123    5136 1       1.14530000e+02    3.58485120e+02
   5125    5123    5136 1       1.24830000e+02    4.77729120e+02
   5125    5127    2124 1       1.24830000e+02    4.77729120e+02
   5125    5127    5128 1       1.13690000e+02    3.54217440e+02
   5125    5127    5129 1       1.22490000e+02    4.75804480e+02
   5125    5133    5131 1       1.03830000e+02    5.17477120e+02
   5125    5133    5134 1       1.11170000e+02    3.56895200e+02
   5125    5133    5135 1       1.11170000e+02    3.56895200e+02
   5126    5125    5133 1       1.11170000e+02    3.56895200e+02
   5127    5125    5126 1       1.12000000e+02    3.56811520e+02
   5127    5129    5130 1       1.14760000e+02    3.49364000e+02
   5129    5127    5128 1       1.14760000e+02    3.49364000e+02
   5129    5131    5132 1       1.12000000e+02    3.56811520e+02
   5131    5129    2123 1       1.24830000e+02    4.77729120e+02
   5131    5129    5127 1       1.22490000e+02    4.75804480e+02
   5131    5129    5130 1       1.13690000e+02    3.54217440e+02
   5131    5133    5134 1       1.11170000e+02    3.56895200e+02
   5131    5133    5135 1       1.11170000e+02    3.56895200e+02
   5132    5131    5133 1       1.11170000e+02    3.56895200e+02
   5133    5125    5127 1       1.03090000e+02    5.20322240e+02
   5133    5131    5129 1       1.03090000e+02    5.20322240e+02
   5134    5133    5135 1       1.07220000e+02    3.00494880e+02
   5136    5137    5138 1       1.19880000e+02    3.75723200e+02
   5139    5140    5141 1       1.20730000e+02    5.29945440e+02
   5139    5174    5173 1       1.20730000e+02    5.29945440e+02
   5139    5174    5175 1       1.19820000e+02    3.74300640e+02
   5140    5139    5174 1       1.18410000e+02    5.33794720e+02
   5140    5141    5142 1       1.19880000e+02    3.75723200e+02
   5140    5141    5143 1       1.20020000e+02    5.32790560e+02
   5141    5143    5144 1       1.20640000e+02    5.08439680e+02
   5141    5143    5173 1       1.20020000e+02    5.32790560e+02
   5142    5141    5143 1       1.19880000e+02    3.75723200e+02
   5143    5144    5145 1       1.14530000e+02    3.58485120e+02
   5143    5144    5146 1       1.16810000e+02    4.91368960e+02
   5143    5144    5168 1       1.24830000e+02    4.77729120e+02
   5143    5173    5146 1       1.20640000e+02    5.08439680e+02
   5143    5173    5174 1       1.20020000e+02    5.32790560e+02
   5144    5143    5173 1       1.20640000e+02    5.08439680e+02
   5144    5146    5147 1       1.14760000e+02    3.49364000e+02
   5144    5146    5148 1       1.22490000e+02    4.75804480e+02
   5144    5146    5173 1       1.16810000e+02    4.91368960e+02
   5144    5168    5166 1       9.60300000e+01    5.40070720e+02
   5144    5168    5169 1       1.12000000e+02    3.56811520e+02
   5144    5168    5170 1       1.03090000e+02    5.20322240e+02
   5145    5144    5146 1       1.14760000e+02    3.49364000e+02
   5145    5144    5168 1       1.13690000e+02    3.54217440e+02
   5146    5144    5168 1       1.22490000e+02    4.75804480e+02
   5146    5148    5149 1       1.12000000e+02    3.56811520e+02
   5146    5148    5150 1       9.60300000e+01    5.40070720e+02
   5146    5148    5170 1       1.03090000e+02    5.20322240e+02
   5146    5173    5174 1       1.20640000e+02    5.08439680e+02
   5147    5146    5148 1       1.13690000e+02    3.54217440e+02
   5147    5146    5173 1       1.14530000e+02    3.58485120e+02
   5148    5146    5173 1       1.24830000e+02    4.77729120e+02
   5148    5150    5151 1       1.13690000e+02    3.54217440e+02
   5148    5150    5152 1       1.24830000e+02    4.77729120e+02
   5148    5150    5166 1       1.22490000e+02    4.75804480e+02
   5148    5170    5168 1       1.03830000e+02    5.17477120e+02
   5148    5170    5171 1       1.11170000e+02    3.56895200e+02
   5148    5170    5172 1       1.11170000e+02    3.56895200e+02
   5149    5148    5150 1       1.12000000e+02    3.56811520e+02
   5149    5148    5170 1       1.11170000e+02    3.56895200e+02
   5150    5148    5170 1       1.03090000e+02    5.20322240e+02
   5150    5152    5153 1       1.20640000e+02    5.08439680e+02
   5150    5152    5161 1       1.20640000e+02    5.08439680e+02
   5150    5166    5153 1       1.16810000e+02    4.91368960e+02
   5150    5166    5167 1       1.14760000e+02    3.49364000e+02
   5150    5166    5168 1       1.22490000e+02    4.75804480e+02
   5151    5150    5152 1       1.14530000e+02    3.58485120e+02
   5151    5150    5166 1       1.14760000e+02    3.49364000e+02
   5152    5150    5166 1       1.16810000e+02    4.91368960e+02
   5152    5153    5154 1       1.20020000e+02    5.32790560e+02
   5152    5153    5166 1       1.20640000e+02    5.08439680e+02
   5152    5161    5160 1       1.20020000e+02    5.32790560e+02
   5152    5161    5162 1       1.20830000e+02    5.08272320e+02
   5153    5152    5161 1       1.20020000e+02    5.32790560e+02
   5153    5154    5155 1       1.20830000e+02    5.08272320e+02
   5153    5154    5159 1       1.20020000e+02    5.32790560e+02
   5153    5166    5167 1       1.14530000e+02    3.58485120e+02
   5153    5166    5168 1       1.24830000e+02    4.77729120e+02
   5154    5153    5166 1       1.20640000e+02    5.08439680e+02
   5154    5155    5156 1       1.10630000e+02    3.64928480e+02
   5154    5155    5157 1       1.10630000e+02    3.64928480e+02
   5154    5155    5158 1       1.10630000e+02    3.64928480e+02
   5154    5159     987 1       1.20640000e+02    5.08439680e+02
   5154    5159    5160 1       1.20020000e+02    5.32790560e+02
   5155    5154    5159 1       1.20830000e+02    5.08272320e+02
   5156    5155    5157 1       1.07730000e+02    2.99574400e+02
   5156    5155    5158 1       1.07730000e+02    2.99574400e+02
   5157    5155    5158 1       1.07730000e+02    2.99574400e+02
   5159     987     988 1       1.14530000e+02    3.58485120e+02
   5159     987     989 1       1.16810000e+02    4.91368960e+02
   5159    5160     989 1       1.20640000e+02    5.08439680e+02
   5159    5160    5161 1       1.20020000e+02    5.32790560e+02
   5160     989     987 1       1.16810000e+02    4.91368960e+02
   5160     989     990 1       1.14530000e+02    3.58485120e+02
   5160    5159     987 1       1.20640000e+02    5.08439680e+02
   5161    5160     989 1       1.20640000e+02    5.08439680e+02
   5161    5162    5163 1       1.10630000e+02    3.64928480e+02
   5161    5162    5164 1       1.10630000e+02    3.64928480e+02
   5161    5162    5165 1       1.10630000e+02    3.64928480e+02
   5162    5161    5160 1       1.20830000e+02    5.08272320e+02
   5163    5162    5164 1       1.07730000e+02    2.99574400e+02
   5163    5162    5165 1       1.07730000e+02    2.99574400e+02
   5164    5162    5165 1       1.07730000e+02    2.99574400e+02
   5166    5168    5169 1       1.12000000e+02    3.56811520e+02
   5166    5168    5170 1       1.03090000e+02    5.20322240e+02
   5167    5166    5168 1       1.13690000e+02    3.54217440e+02
   5168    5170    5171 1       1.11170000e+02    3.56895200e+02
   5168    5170    5172 1       1.11170000e+02    3.56895200e+02
   5169    5168    5170 1       1.11170000e+02    3.56895200e+02
   5171    5170    5172 1       1.07220000e+02    3.00494880e+02
   5173    5174    5175 1       1.19880000e+02    3.75723200e+02
   5176    5180    5181 1       1.10280000e+02    5.05761920e+02
   5176    5180    5185 1       1.13070000e+02    5.03000480e+02
   5176    5180    5209 1       1.13070000e+02    5.03000480e+02
   5177    5176    5178 1       1.07730000e+02    2.99574400e+02
   5177    5176    5179 1       1.07730000e+02    2.99574400e+02
   5177    5176    5180 1       1.10530000e+02    3.60326080e+02
   5178    5176    5179 1       1.07730000e+02    2.99574400e+02
   5178    5176    5180 1       1.10530000e+02    3.60326080e+02
   5179    5176    5180 1       1.10530000e+02    3.60326080e+02
   5180    5181    5182 1       1.10530000e+02    3.60326080e+02
   5180    5181    5183 1       1.10530000e+02    3.60326080e+02
   5180    5181    5184 1       1.10530000e+02    3.60326080e+02
   5180    5185    5186 1       1.10210000e+02    5.31033280e+02
   5180    5185    5206 1       1.21870000e+02    5.06012960e+02
   5180    5209    5208 1       1.10210000e+02    5.31033280e+02
   5180    5209    5210 1       1.21870000e+02    5.06012960e+02
   5181    5180    5185 1       1.13070000e+02    5.03000480e+02
   5181    5180    5209 1       1.13070000e+02    5.03000480e+02
   5182    5181    5183 1       1.07730000e+02    2.99574400e+02
   5182    5181    5184 1       1.07730000e+02    2.99574400e+02
   5183    5181    5184 1       1.07730000e+02    2.99574400e+02
   5185    5180    5209 1       1.12520000e+02    5.08021280e+02
   5185    5186    5187 1       1.18410000e+02    5.33794720e+02
   5185    5186    5208 1       1.21100000e+02    5.12958400e+02
   5185    5206    5205 1       1.20020000e+02    5.32790560e+02
   5185    5206    5207 1       1.19880000e+02    3.75723200e+02
   5186    5185    5206 1       1.20730000e+02    5.29945440e+02
   5186    5187    5188 1       1.19820000e+02    3.74300640e+02
   5186    5187    5189 1       1.20730000e+02    5.29945440e+02
   5186    5208    5209 1       1.21100000e+02    5.12958400e+02
   5186    5208    5243 1       1.21100000e+02    5.12958400e+02
   5187    5186    5208 1       1.21100000e+02    5.12958400e+02
   5187    5189    5190 1       1.20640000e+02    5.08439680e+02
   5187    5189    5205 1       1.20020000e+02    5.32790560e+02
   5188    5187    5189 1       1.19880000e+02    3.75723200e+02
   5189    5190    5191 1       1.14530000e+02    3.58485120e+02
   5189    5190    5192 1       1.16810000e+02    4.91368960e+02
   5189    5190    5200 1       1.24830000e+02    4.77729120e+02
   5189    5205    5192 1       1.20640000e+02    5.08439680e+02
   5189    5205    5206 1       1.20020000e+02    5.32790560e+02
   5190    5189    5205 1       1.20640000e+02    5.08439680e+02
   5190    5192    5193 1       1.14760000e+02    3.49364000e+02
   5190    5192    5194 1       1.22490000e+02    4.75804480e+02
   5190    5192    5205 1       1.16810000e+02    4.91368960e+02
   5190    5200    5198 1       9.60300000e+01    5.40070720e+02
   5190    5200    5201 1       1.12000000e+02    3.56811520e+02
   5190    5200    5202 1       1.03090000e+02    5.20322240e+02
   5191    5190    5192 1       1.14760000e+02    3.49364000e+02
   5191    5190    5200 1       1.13690000e+02    3.54217440e+02
   5192    5190    5200 1       1.22490000e+02    4.75804480e+02
   5192    5194    5195 1       1.12000000e+02    3.56811520e+02
   5192    5194    5196 1       9.60300000e+01    5.40070720e+02
   5192    5194    5202 1       1.03090000e+02    5.20322240e+02
   5192    5205    5206 1       1.20640000e+02    5.08439680e+02
   5193    5192    5194 1       1.13690000e+02    3.54217440e+02
   5193    5192    5205 1       1.14530000e+02    3.58485120e+02
   5194    5192    5205 1       1.24830000e+02    4.77729120e+02
   5194    5196    1709 1       1.24830000e+02    4.77729120e+02
   5194    5196    5197 1       1.13690000e+02    3.54217440e+02
   5194    5196    5198 1       1.22490000e+02    4.75804480e+02
   5194    5202    5200 1       1.03830000e+02    5.17477120e+02
   5194    5202    5203 1       1.11170000e+02    3.56895200e+02
   5194    5202    5204 1       1.11170000e+02    3.56895200e+02
   5195    5194    5202 1       1.11170000e+02    3.56895200e+02
   5196    5194    5195 1       1.12000000e+02    3.56811520e+02
   5196    5198    5199 1       1.14760000e+02    3.49364000e+02
   5198    5196    5197 1       1.14760000e+02    3.49364000e+02
   5198    5200    5201 1       1.12000000e+02    3.56811520e+02
   5200    5198    1710 1       1.24830000e+02    4.77729120e+02
   5200    5198    5196 1       1.22490000e+02    4.75804480e+02
   5200    5198    5199 1       1.13690000e+02    3.54217440e+02
   5200    5202    5203 1       1.11170000e+02    3.56895200e+02
   5200    5202    5204 1       1.11170000e+02    3.56895200e+02
   5201    5200    5202 1       1.11170000e+02    3.56895200e+02
   5202    5194    5196 1       1.03090000e+02    5.20322240e+02
   5202    5200    5198 1       1.03090000e+02    5.20322240e+02
   5203    5202    5204 1       1.07220000e+02    3.00494880e+02
   5205    5206    5207 1       1.19880000e+02    3.75723200e+02
   5208    5209    5210 1       1.20730000e+02    5.29945440e+02
   5208    5243    5242 1       1.20730000e+02    5.29945440e+02
   5208    5243    5244 1       1.19820000e+02    3.74300640e+02
   5209    5208    5243 1       1.18410000e+02    5.33794720e+02
   5209    5210    5211 1       1.19880000e+02    3.75723200e+02
   5209    5210    5212 1       1.20020000e+02    5.32790560e+02
   5210    5212    5213 1       1.20640000e+02    5.08439680e+02
   5210    5212    5242 1       1.20020000e+02    5.32790560e+02
   5211    5210    5212 1       1.19880000e+02    3.75723200e+02
   5212    5213    5214 1       1.14530000e+02    3.58485120e+02
   5212    5213    5215 1       1.16810000e+02    4.91368960e+02
   5212    5213    5237 1       1.24830000e+02    4.77729120e+02
   5212    5242    5215 1       1.20640000e+02    5.08439680e+02
   5212    5242    5243 1       1.20020000e+02    5.32790560e+02
   5213    5212    5242 1       1.20640000e+02    5.08439680e+02
   5213    5215    5216 1       1.14760000e+02    3.49364000e+02
   5213    5215    5217 1       1.22490000e+02    4.75804480e+02
   5213    5215    5242 1       1.16810000e+02    4.91368960e+02
   5213    5237    5235 1       9.60300000e+01    5.40070720e+02
   5213    5237    5238 1       1.12000000e+02    3.56811520e+02
   5213    5237    5239 1       1.03090000e+02    5.20322240e+02
   5214    5213    5215 1       1.14760000e+02    3.49364000e+02
   5214    5213    5237 1       1.13690000e+02    3.54217440e+02
   5215    5213    5237 1       1.22490000e+02    4.75804480e+02
   5215    5217    5218 1       1.12000000e+02    3.56811520e+02
   5215    5217    5219 1       9.60300000e+01    5.40070720e+02
   5215    5217    5239 1       1.03090000e+02    5.20322240e+02
   5215    5242    5243 1       1.20640000e+02    5.08439680e+02
   5216    5215    5217 1       1.13690000e+02    3.54217440e+02
   5216    5215    5242 1       1.14530000e+02    3.58485120e+02
   5217    5215    5242 1       1.24830000e+02    4.77729120e+02
   5217    5219    5220 1       1.13690000e+02    3.54217440e+02
   5217    5219    5221 1       1.24830000e+02    4.77729120e+02
   5217    5219    5235 1       1.22490000e+02    4.75804480e+02
   5217    5239    5237 1       1.03830000e+02    5.17477120e+02
   5217    5239    5240 1       1.11170000e+02    3.56895200e+02
   5217    5239    5241 1       1.11170000e+02    3.56895200e+02
   5218    5217    5219 1       1.12000000e+02    3.56811520e+02
   5218    5217    5239 1       1.11170000e+02    3.56895200e+02
   5219    5217    5239 1       1.03090000e+02    5.20322240e+02
   5219    5221    5222 1       1.20640000e+02    5.08439680e+02
   5219    5221    5230 1       1.20640000e+02    5.08439680e+02
   5219    5235    5222 1       1.16810000e+02    4.91368960e+02
   5219    5235    5236 1       1.14760000e+02    3.49364000e+02
   5219    5235    5237 1       1.22490000e+02    4.75804480e+02
   5220    5219    5221 1       1.14530000e+02    3.58485120e+02
   5220    5219    5235 1       1.14760000e+02    3.49364000e+02
   5221    5219    5235 1       1.16810000e+02    4.91368960e+02
   5221    5222    5223 1       1.20020000e+02    5.32790560e+02
   5221    5222    5235 1       1.20640000e+02    5.08439680e+02
   5221    5230    5229 1       1.20020000e+02    5.32790560e+02
   5221    5230    5231 1       1.20830000e+02    5.08272320e+02
   5222    5221    5230 1       1.20020000e+02    5.32790560e+02
   5222    5223    5224 1       1.20830000e+02    5.08272320e+02
   5222    5223    5228 1       1.20020000e+02    5.32790560e+02
   5222    5235    5236 1       1.14530000e+02    3.58485120e+02
   5222    5235    5237 1       1.24830000e+02    4.77729120e+02
   5223    5222    5235 1       1.20640000e+02    5.08439680e+02
   5223    5224    5225 1       1.10630000e+02    3.64928480e+02
   5223    5224    5226 1       1.10630000e+02    3.64928480e+02
   5223    5224    5227 1       1.10630000e+02    3.64928480e+02
   5223    5228    1539 1       1.20640000e+02    5.08439680e+02
   5223    5228    5229 1       1.20020000e+02    5.32790560e+02
   5224    5223    5228 1       1.20830000e+02    5.08272320e+02
   5225    5224    5226 1       1.07730000e+02    2.99574400e+02
   5225    5224    5227 1       1.07730000e+02    2.99574400e+02
   5226    5224    5227 1       1.07730000e+02    2.99574400e+02
   5228    1539    1540 1       1.14530000e+02    3.58485120e+02
   5228    1539    1541 1       1.16810000e+02    4.91368960e+02
   5228    5229    1541 1       1.20640000e+02    5.08439680e+02
   5228    5229    5230 1       1.20020000e+02    5.32790560e+02
   5229    1541    1539 1       1.16810000e+02    4.91368960e+02
   5229    1541    1542 1       1.14530000e+02    3.58485120e+02
   5229    5228    1539 1       1.20640000e+02    5.08439680e+02
   5230    5229    1541 1       1.20640000e+02    5.08439680e+02
   5230    5231    5232 1       1.10630000e+02    3.64928480e+02
   5230    5231    5233 1       1.10630000e+02    3.64928480e+02
   5230    5231    5234 1       1.10630000e+02    3.64928480e+02
   5231    5230    5229 1       1.20830000e+02    5.08272320e+02
   5232    5231    5233 1       1.07730000e+02    2.99574400e+02
   5232    5231    5234 1       1.07730000e+02    2.99574400e+02
   5233    5231    5234 1       1.07730000e+02    2.99574400e+02
   5235    5237    5238 1       1.12000000e+02    3.56811520e+02
   5235    5237    5239 1       1.03090000e+02    5.20322240e+02
   5236    5235    5237 1       1.13690000e+02    3.54217440e+02
   5237    5239    5240 1       1.11170000e+02    3.56895200e+02
   5237    5239    5241 1       1.11170000e+02    3.56895200e+02
   5238    5237    5239 1       1.11170000e+02    3.56895200e+02
   5240    5239    5241 1       1.07220000e+02    3.00494880e+02
   5242    5243    5244 1       1.19880000e+02    3.75723200e+02
   5245    5249    5250 1       1.10280000e+02    5.05761920e+02
   5245    5249    5254 1       1.13070000e+02    5.03000480e+02
   5245    5249    5278 1       1.13070000e+02    5.03000480e+02
   5246    5245    5247 1       1.07730000e+02    2.99574400e+02
   5246    5245    5248 1       1.07730000e+02    2.99574400e+02
   5246    5245    5249 1       1.10530000e+02    3.60326080e+02
   5247    5245    5248 1       1.07730000e+02    2.99574400e+02
   5247    5245    5249 1       1.10530000e+02    3.60326080e+02
   5248    5245    5249 1       1.10530000e+02    3.60326080e+02
   5249    5250    5251 1       1.10530000e+02    3.60326080e+02
   5249    5250    5252 1       1.10530000e+02    3.60326080e+02
   5249    5250    5253 1       1.10530000e+02    3.60326080e+02
   5249    5254    5255 1       1.10210000e+02    5.31033280e+02
   5249    5254    5275 1       1.21870000e+02    5.06012960e+02
   5249    5278    5277 1       1.10210000e+02    5.31033280e+02
   5249    5278    5279 1       1.21870000e+02    5.06012960e+02
   5250    5249    5254 1       1.13070000e+02    5.03000480e+02
   5250    5249    5278 1       1.13070000e+02    5.03000480e+02
   5251    5250    5252 1       1.07730000e+02    2.99574400e+02
   5251    5250    5253 1       1.07730000e+02    2.99574400e+02
   5252    5250    5253 1       1.07730000e+02    2.99574400e+02
   5254    5249    5278 1       1.12520000e+02    5.08021280e+02
   5254    5255    5256 1       1.18410000e+02    5.33794720e+02
   5254    5255    5277 1       1.21100000e+02    5.12958400e+02
   5254    5275    5274 1       1.20020000e+02    5.32790560e+02
   5254    5275    5276 1       1.19880000e+02    3.75723200e+02
   5255    5254    5275 1       1.20730000e+02    5.29945440e+02
   5255    5256    5257 1       1.19820000e+02    3.74300640e+02
   5255    5256    5258 1       1.20730000e+02    5.29945440e+02
   5255    5277    5278 1       1.21100000e+02    5.12958400e+02
   5255    5277    5312 1       1.21100000e+02    5.12958400e+02
   5256    5255    5277 1       1.21100000e+02    5.12958400e+02
   5256    5258    5259 1       1.20640000e+02    5.08439680e+02
   5256    5258    5274 1       1.20020000e+02    5.32790560e+02
   5257    5256    5258 1       1.19880000e+02    3.75723200e+02
   5258    5259    5260 1       1.14530000e+02    3.58485120e+02
   5258    5259    5261 1       1.16810000e+02    4.91368960e+02
   5258    5259    5269 1       1.24830000e+02    4.77729120e+02
   5258    5274    5261 1       1.20640000e+02    5.08439680e+02
   5258    5274    5275 1       1.20020000e+02    5.32790560e+02
   5259    5258    5274 1       1.20640000e+02    5.08439680e+02
   5259    5261    5262 1       1.14760000e+02    3.49364000e+02
   5259    5261    5263 1       1.22490000e+02    4.75804480e+02
   5259    5261    5274 1       1.16810000e+02    4.91368960e+02
   5259    5269    5267 1       1.03090000e+02    5.20322240e+02
   5259    5269    5270 1       1.12000000e+02    3.56811520e+02
   5259    5269    5271 1       1.03090000e+02    5.20322240e+02
   5260    5259    5261 1       1.14760000e+02    3.49364000e+02
   5260    5259    5269 1       1.13690000e+02    3.54217440e+02
   5261    5259    5269 1       1.22490000e+02    4.75804480e+02
   5261    5263    5264 1       1.12000000e+02    3.56811520e+02
   5261    5263    5265 1       1.03090000e+02    5.20322240e+02
   5261    5263    5271 1       1.03090000e+02    5.20322240e+02
   5261    5274    5275 1       1.20640000e+02    5.08439680e+02
   5262    5261    5263 1       1.13690000e+02    3.54217440e+02
   5262    5261    5274 1       1.14530000e+02    3.58485120e+02
   5263    5261    5274 1       1.24830000e+02    4.77729120e+02
   5263    5265    5266 1       1.11170000e+02    3.56895200e+02
   5263    5265    5267 1       1.03830000e+02    5.17477120e+02
   5263    5271    5269 1       1.03830000e+02    5.17477120e+02
   5263    5271    5272 1       1.11170000e+02    3.56895200e+02
   5263    5271    5273 1       1.11170000e+02    3.56895200e+02
   5264    5263    5265 1       1.11170000e+02    3.56895200e+02
   5264    5263    5271 1       1.11170000e+02    3.56895200e+02
   5265    5263    5271 1       1.03830000e+02    5.17477120e+02
   5265    5267    5268 1       1.11170000e+02    3.56895200e+02
   5265    5267    5269 1       1.03830000e+02    5.17477120e+02
   5266    5265    5267 1       1.11170000e+02    3.56895200e+02
   5267    5269    5270 1       1.11170000e+02    3.56895200e+02
   5267    5269    5271 1       1.03830000e+02    5.17477120e+02
   5268    5267    5269 1       1.11170000e+02    3.56895200e+02
   5269    5271    5272 1       1.11170000e+02    3.56895200e+02
   5269    5271    5273 1       1.11170000e+02    3.56895200e+02
   5270    5269    5271 1       1.11170000e+02    3.56895200e+02
   5272    5271    5273 1       1.07220000e+02    3.00494880e+02
   5274    5275    5276 1       1.19880000e+02    3.75723200e+02
   5277    5278    5279 1       1.20730000e+02    5.29945440e+02
   5277    5312    5311 1       1.20730000e+02    5.29945440e+02
   5277    5312    5313 1       1.19820000e+02    3.74300640e+02
   5278    5277    5312 1       1.18410000e+02    5.33794720e+02
   5278    5279    5280 1       1.19880000e+02    3.75723200e+02
   5278    5279    5281 1       1.20020000e+02    5.32790560e+02
   5279    5281    5282 1       1.20640000e+02    5.08439680e+02
   5279    5281    5311 1       1.20020000e+02    5.32790560e+02
   5280    5279    5281 1       1.19880000e+02    3.75723200e+02
   5281    5282    5283 1       1.14530000e+02    3.58485120e+02
   5281    5282    5284 1       1.16810000e+02    4.91368960e+02
   5281    5282    5306 1       1.24830000e+02    4.77729120e+02
   5281    5311    5284 1       1.20640000e+02    5.08439680e+02
   5281    5311    5312 1       1.20020000e+02    5.32790560e+02
   5282    5281    5311 1       1.20640000e+02    5.08439680e+02
   5282    5284    5285 1       1.14760000e+02    3.49364000e+02
   5282    5284    5286 1       1.22490000e+02    4.75804480e+02
   5282    5284    5311 1       1.16810000e+02    4.91368960e+02
   5282    5306    5304 1       9.60300000e+01    5.40070720e+02
   5282    5306    5307 1       1.12000000e+02    3.56811520e+02
   5282    5306    5308 1       1.03090000e+02    5.20322240e+02
   5283    5282    5284 1       1.14760000e+02    3.49364000e+02
   5283    5282    5306 1       1.13690000e+02    3.54217440e+02
   5284    5282    5306 1       1.22490000e+02    4.75804480e+02
   5284    5286    5287 1       1.12000000e+02    3.56811520e+02
   5284    5286    5288 1       9.60300000e+01    5.40070720e+02
   5284    5286    5308 1       1.03090000e+02    5.20322240e+02
   5284    5311    5312 1       1.20640000e+02    5.08439680e+02
   5285    5284    5286 1       1.13690000e+02    3.54217440e+02
   5285    5284    5311 1       1.14530000e+02    3.58485120e+02
   5286    5284    5311 1       1.24830000e+02    4.77729120e+02
   5286    5288    5289 1       1.13690000e+02    3.54217440e+02
   5286    5288    5290 1       1.24830000e+02    4.77729120e+02
   5286    5288    5304 1       1.22490000e+02    4.75804480e+02
   5286    5308    5306 1       1.03830000e+02    5.17477120e+02
   5286    5308    5309 1       1.11170000e+02    3.56895200e+02
   5286    5308    5310 1       1.11170000e+02    3.56895200e+02
   5287    5286    5288 1       1.12000000e+02    3.56811520e+02
   5287    5286    5308 1       1.11170000e+02    3.56895200e+02
   5288    5286    5308 1       1.03090000e+02    5.20322240e+02
   5288    5290    5291 1       1.20640000e+02    5.08439680e+02
   5288    5290    5299 1       1.20640000e+02    5.08439680e+02
   5288    5304    5291 1       1.16810000e+02    4.91368960e+02
   5288    5304    5305 1       1.14760000e+02    3.49364000e+02
   5288    5304    5306 1       1.22490000e+02    4.75804480e+02
   5289    5288    5290 1       1.14530000e+02    3.58485120e+02
   5289    5288    5304 1       1.14760000e+02    3.49364000e+02
   5290    5288    5304 1       1.16810000e+02    4.91368960e+02
   5290    5291    5292 1       1.20020000e+02    5.32790560e+02
   5290    5291    5304 1       1.20640000e+02    5.08439680e+02
   5290    5299    5298 1       1.20020000e+02    5.32790560e+02
   5290    5299    5300 1       1.20830000e+02    5.08272320e+02
   5291    5290    5299 1       1.20020000e+02    5.32790560e+02
   5291    5292    5293 1       1.20830000e+02    5.08272320e+02
   5291    5292    5297 1       1.20020000e+02    5.32790560e+02
   5291    5304    5305 1       1.14530000e+02    3.58485120e+02
   5291    5304    5306 1       1.24830000e+02    4.77729120e+02
   5292    5291    5304 1       1.20640000e+02    5.08439680e+02
   5292    5293    5294 1       1.10630000e+02    3.64928480e+02
   5292    5293    5295 1       1.10630000e+02    3.64928480e+02
   5292    5293    5296 1       1.10630000e+02    3.64928480e+02
   5292    5297    5298 1       1.20020000e+02    5.32790560e+02
   5292    5297    6852 1       1.20640000e+02    5.08439680e+02
   5293    5292    5297 1       1.20830000e+02    5.08272320e+02
   5294    5293    5295 1       1.07730000e+02    2.99574400e+02
   5294    5293    5296 1       1.07730000e+02    2.99574400e+02
   5295    5293    5296 1       1.07730000e+02    2.99574400e+02
   5297    5298    5299 1       1.20020000e+02    5.32790560e+02
   5297    5298    6854 1       1.20640000e+02    5.08439680e+02
   5297    6852    6853 1       1.14530000e+02    3.58485120e+02
   5297    6852    6854 1       1.16810000e+02    4.91368960e+02
   5298    5297    6852 1       1.20640000e+02    5.08439680e+02
   5298    6854    6852 1       1.16810000e+02    4.91368960e+02
   5298    6854    6855 1       1.14530000e+02    3.58485120e+02
   5299    5298    6854 1       1.20640000e+02    5.08439680e+02
   5299    5300    5301 1       1.10630000e+02    3.64928480e+02
   5299    5300    5302 1       1.10630000e+02    3.64928480e+02
   5299    5300    5303 1       1.10630000e+02    3.64928480e+02
   5300    5299    5298 1       1.20830000e+02    5.08272320e+02
   5301    5300    5302 1       1.07730000e+02    2.99574400e+02
   5301    5300    5303 1       1.07730000e+02    2.99574400e+02
   5302    5300    5303 1       1.07730000e+02    2.99574400e+02
   5304    5306    5307 1       1.12000000e+02    3.56811520e+02
   5304    5306    5308 1       1.03090000e+02    5.20322240e+02
   5305    5304    5306 1       1.13690000e+02    3.54217440e+02
   5306    5308    5309 1       1.11170000e+02    3.56895200e+02
   5306    5308    5310 1       1.11170000e+02    3.56895200e+02
   5307    5306    5308 1       1.11170000e+02    3.56895200e+02
   5309    5308    5310 1       1.07220000e+02    3.00494880e+02
   5311    5312    5313 1       1.19880000e+02    3.75723200e+02
   5314    5318    5319 1       1.10280000e+02    5.05761920e+02
   5314    5318    5323 1       1.13070000e+02    5.03000480e+02
   5314    5318    5347 1       1.13070000e+02    5.03000480e+02
   5315    5314    5316 1       1.07730000e+02    2.99574400e+02
   5315    5314    5317 1       1.07730000e+02    2.99574400e+02
   5315    5314    5318 1       1.10530000e+02    3.60326080e+02
   5316    5314    5317 1       1.07730000e+02    2.99574400e+02
   5316    5314    5318 1       1.10530000e+02    3.60326080e+02
   5317    5314    5318 1       1.10530000e+02    3.60326080e+02
   5318    5319    5320 1       1.10530000e+02    3.60326080e+02
   5318    5319    5321 1       1.10530000e+02    3.60326080e+02
   5318    5319    5322 1       1.10530000e+02    3.60326080e+02
   5318    5323    5324 1       1.10210000e+02    5.31033280e+02
   5318    5323    5344 1       1.21870000e+02    5.06012960e+02
   5318    5347    5346 1       1.10210000e+02    5.31033280e+02
   5318    5347    5348 1       1.21870000e+02    5.06012960e+02
   5319    5318    5323 1       1.13070000e+02    5.03000480e+02
   5319    5318    5347 1       1.13070000e+02    5.03000480e+02
   5320    5319    5321 1       1.07730000e+02    2.99574400e+02
   5320    5319    5322 1       1.07730000e+02    2.99574400e+02
   5321    5319    5322 1       1.07730000e+02    2.99574400e+02
   5323    5318    5347 1       1.12520000e+02    5.08021280e+02
   5323    5324    5325 1       1.18410000e+02    5.33794720e+02
   5323    5324    5346 1       1.21100000e+02    5.12958400e+02
   5323    5344    5343 1       1.20020000e+02    5.32790560e+02
   5323    5344    5345 1       1.19880000e+02    3.75723200e+02
   5324    5323    5344 1       1.20730000e+02    5.29945440e+02
   5324    5325    5326 1       1.19820000e+02    3.74300640e+02
   5324    5325    5327 1       1.20730000e+02    5.29945440e+02
   5324    5346    5347 1       1.21100000e+02    5.12958400e+02
   5324    5346    5381 1       1.21100000e+02    5.12958400e+02
   5325    5324    5346 1       1.21100000e+02    5.12958400e+02
   5325    5327    5328 1       1.20640000e+02    5.08439680e+02
   5325    5327    5343 1       1.20020000e+02    5.32790560e+02
   5326    5325    5327 1       1.19880000e+02    3.75723200e+02
   5327    5328    5329 1       1.14530000e+02    3.58485120e+02
   5327    5328    5330 1       1.16810000e+02    4.91368960e+02
   5327    5328    5338 1       1.24830000e+02    4.77729120e+02
   5327    5343    5330 1       1.20640000e+02    5.08439680e+02
   5327    5343    5344 1       1.20020000e+02    5.32790560e+02
   5328    5327    5343 1       1.20640000e+02    5.08439680e+02
   5328    5330    5331 1       1.14760000e+02    3.49364000e+02
   5328    5330    5332 1       1.22490000e+02    4.75804480e+02
   5328    5330    5343 1       1.16810000e+02    4.91368960e+02
   5328    5338    5336 1       9.60300000e+01    5.40070720e+02
   5328    5338    5339 1       1.12000000e+02    3.56811520e+02
   5328    5338    5340 1       1.03090000e+02    5.20322240e+02
   5329    5328    5330 1       1.14760000e+02    3.49364000e+02
   5329    5328    5338 1       1.13690000e+02    3.54217440e+02
   5330    5328    5338 1       1.22490000e+02    4.75804480e+02
   5330    5332    5333 1       1.12000000e+02    3.56811520e+02
   5330    5332    5334 1       9.60300000e+01    5.40070720e+02
   5330    5332    5340 1       1.03090000e+02    5.20322240e+02
   5330    5343    5344 1       1.20640000e+02    5.08439680e+02
   5331    5330    5332 1       1.13690000e+02    3.54217440e+02
   5331    5330    5343 1       1.14530000e+02    3.58485120e+02
   5332    5330    5343 1       1.24830000e+02    4.77729120e+02
   5332    5334    1019 1       1.24830000e+02    4.77729120e+02
   5332    5334    5335 1       1.13690000e+02    3.54217440e+02
   5332    5334    5336 1       1.22490000e+02    4.75804480e+02
   5332    5340    5338 1       1.03830000e+02    5.17477120e+02
   5332    5340    5341 1       1.11170000e+02    3.56895200e+02
   5332    5340    5342 1       1.11170000e+02    3.56895200e+02
   5333    5332    5340 1       1.11170000e+02    3.56895200e+02
   5334    5332    5333 1       1.12000000e+02    3.56811520e+02
   5334    5336    5337 1       1.14760000e+02    3.49364000e+02
   5336    5334    5335 1       1.14760000e+02    3.49364000e+02
   5336    5338    5339 1       1.12000000e+02    3.56811520e+02
   5338    5336    1020 1       1.24830000e+02    4.77729120e+02
   5338    5336    5334 1       1.22490000e+02    4.75804480e+02
   5338    5336    5337 1       1.13690000e+02    3.54217440e+02
   5338    5340    5341 1       1.11170000e+02    3.56895200e+02
   5338    5340    5342 1       1.11170000e+02    3.56895200e+02
   5339    5338    5340 1       1.11170000e+02    3.56895200e+02
   5340    5332    5334 1       1.03090000e+02    5.20322240e+02
   5340    5338    5336 1       1.03090000e+02    5.20322240e+02
   5341    5340    5342 1       1.07220000e+02    3.00494880e+02
   5343    5344    5345 1       1.19880000e+02    3.75723200e+02
   5346    5347    5348 1       1.20730000e+02    5.29945440e+02
   5346    5381    5380 1       1.20730000e+02    5.29945440e+02
   5346    5381    5382 1       1.19820000e+02    3.74300640e+02
   5347    5346    5381 1       1.18410000e+02    5.33794720e+02
   5347    5348    5349 1       1.19880000e+02    3.75723200e+02
   5347    5348    5350 1       1.20020000e+02    5.32790560e+02
   5348    5350    5351 1       1.20640000e+02    5.08439680e+02
   5348    5350    5380 1       1.20020000e+02    5.32790560e+02
   5349    5348    5350 1       1.19880000e+02    3.75723200e+02
   5350    5351    5352 1       1.14530000e+02    3.58485120e+02
   5350    5351    5353 1       1.16810000e+02    4.91368960e+02
   5350    5351    5375 1       1.24830000e+02    4.77729120e+02
   5350    5380    5353 1       1.20640000e+02    5.08439680e+02
   5350    5380    5381 1       1.20020000e+02    5.32790560e+02
   5351    5350    5380 1       1.20640000e+02    5.08439680e+02
   5351    5353    5354 1       1.14760000e+02    3.49364000e+02
   5351    5353    5355 1       1.22490000e+02    4.75804480e+02
   5351    5353    5380 1       1.16810000e+02    4.91368960e+02
   5351    5375    5373 1       9.60300000e+01    5.40070720e+02
   5351    5375    5376 1       1.12000000e+02    3.56811520e+02
   5351    5375    5377 1       1.03090000e+02    5.20322240e+02
   5352    5351    5353 1       1.14760000e+02    3.49364000e+02
   5352    5351    5375 1       1.13690000e+02    3.54217440e+02
   5353    5351    5375 1       1.22490000e+02    4.75804480e+02
   5353    5355    5356 1       1.12000000e+02    3.56811520e+02
   5353    5355    5357 1       9.60300000e+01    5.40070720e+02
   5353    5355    5377 1       1.03090000e+02    5.20322240e+02
   5353    5380    5381 1       1.20640000e+02    5.08439680e+02
   5354    5353    5355 1       1.13690000e+02    3.54217440e+02
   5354    5353    5380 1       1.14530000e+02    3.58485120e+02
   5355    5353    5380 1       1.24830000e+02    4.77729120e+02
   5355    5357    5358 1       1.13690000e+02    3.54217440e+02
   5355    5357    5359 1       1.24830000e+02    4.77729120e+02
   5355    5357    5373 1       1.22490000e+02    4.75804480e+02
   5355    5377    5375 1       1.03830000e+02    5.17477120e+02
   5355    5377    5378 1       1.11170000e+02    3.56895200e+02
   5355    5377    5379 1       1.11170000e+02    3.56895200e+02
   5356    5355    5357 1       1.12000000e+02    3.56811520e+02
   5356    5355    5377 1       1.11170000e+02    3.56895200e+02
   5357    5355    5377 1       1.03090000e+02    5.20322240e+02
   5357    5359    5360 1       1.20640000e+02    5.08439680e+02
   5357    5359    5368 1       1.20640000e+02    5.08439680e+02
   5357    5373    5360 1       1.16810000e+02    4.91368960e+02
   5357    5373    5374 1       1.14760000e+02    3.49364000e+02
   5357    5373    5375 1       1.22490000e+02    4.75804480e+02
   5358    5357    5359 1       1.14530000e+02    3.58485120e+02
   5358    5357    5373 1       1.14760000e+02    3.49364000e+02
   5359    5357    5373 1       1.16810000e+02    4.91368960e+02
   5359    5360    5361 1       1.20020000e+02    5.32790560e+02
   5359    5360    5373 1       1.20640000e+02    5.08439680e+02
   5359    5368    5367 1       1.20020000e+02    5.32790560e+02
   5359    5368    5369 1       1.20830000e+02    5.08272320e+02
   5360    5359    5368 1       1.20020000e+02    5.32790560e+02
   5360    5361    5362 1       1.20830000e+02    5.08272320e+02
   5360    5361    5366 1       1.20020000e+02    5.32790560e+02
   5360    5373    5374 1       1.14530000e+02    3.58485120e+02
   5360    5373    5375 1       1.24830000e+02    4.77729120e+02
   5361    5360    5373 1       1.20640000e+02    5.08439680e+02
   5361    5362    5363 1       1.10630000e+02    3.64928480e+02
   5361    5362    5364 1       1.10630000e+02    3.64928480e+02
   5361    5362    5365 1       1.10630000e+02    3.64928480e+02
   5361    5366    5367 1       1.20020000e+02    5.32790560e+02
   5361    5366    6714 1       1.20640000e+02    5.08439680e+02
   5362    5361    5366 1       1.20830000e+02    5.08272320e+02
   5363    5362    5364 1       1.07730000e+02    2.99574400e+02
   5363    5362    5365 1       1.07730000e+02    2.99574400e+02
   5364    5362    5365 1       1.07730000e+02    2.99574400e+02
   5366    5367    5368 1       1.20020000e+02    5.32790560e+02
   5366    5367    6716 1       1.20640000e+02    5.08439680e+02
   5366    6714    6715 1       1.14530000e+02    3.58485120e+02
   5366    6714    6716 1       1.16810000e+02    4.91368960e+02
   5367    5366    6714 1       1.20640000e+02    5.08439680e+02
   5367    6716    6714 1       1.16810000e+02    4.91368960e+02
   5367    6716    6717 1       1.14530000e+02    3.58485120e+02
   5368    5367    6716 1       1.20640000e+02    5.08439680e+02
   5368    5369    5370 1       1.10630000e+02    3.64928480e+02
   5368    5369    5371 1       1.10630000e+02    3.64928480e+02
   5368    5369    5372 1       1.10630000e+02    3.64928480e+02
   5369    5368    5367 1       1.20830000e+02    5.08272320e+02
   5370    5369    5371 1       1.07730000e+02    2.99574400e+02
   5370    5369    5372 1       1.07730000e+02    2.99574400e+02
   5371    5369    5372 1       1.07730000e+02    2.99574400e+02
   5373    5375    5376 1       1.12000000e+02    3.56811520e+02
   5373    5375    5377 1       1.03090000e+02    5.20322240e+02
   5374    5373    5375 1       1.13690000e+02    3.54217440e+02
   5375    5377    5378 1       1.11170000e+02    3.56895200e+02
   5375    5377    5379 1       1.11170000e+02    3.56895200e+02
   5376    5375    5377 1       1.11170000e+02    3.56895200e+02
   5378    5377    5379 1       1.07220000e+02    3.00494880e+02
   5380    5381    5382 1       1.19880000e+02    3.75723200e+02
   5383    5387    5388 1       1.10280000e+02    5.05761920e+02
   5383    5387    5392 1       1.13070000e+02    5.03000480e+02
   5383    5387    5416 1       1.13070000e+02    5.03000480e+02
   5384    5383    5385 1       1.07730000e+02    2.99574400e+02
   5384    5383    5386 1       1.07730000e+02    2.99574400e+02
   5384    5383    5387 1       1.10530000e+02    3.60326080e+02
   5385    5383    5386 1       1.07730000e+02    2.99574400e+02
   5385    5383    5387 1       1.10530000e+02    3.60326080e+02
   5386    5383    5387 1       1.10530000e+02    3.60326080e+02
   5387    5388    5389 1       1.10530000e+02    3.60326080e+02
   5387    5388    5390 1       1.10530000e+02    3.60326080e+02
   5387    5388    5391 1       1.10530000e+02    3.60326080e+02
   5387    5392    5393 1       1.10210000e+02    5.31033280e+02
   5387    5392    5413 1       1.21870000e+02    5.06012960e+02
   5387    5416    5415 1       1.10210000e+02    5.31033280e+02
   5387    5416    5417 1       1.21870000e+02    5.06012960e+02
   5388    5387    5392 1       1.13070000e+02    5.03000480e+02
   5388    5387    5416 1       1.13070000e+02    5.03000480e+02
   5389    5388    5390 1       1.07730000e+02    2.99574400e+02
   5389    5388    5391 1       1.07730000e+02    2.99574400e+02
   5390    5388    5391 1       1.07730000e+02    2.99574400e+02
   5392    5387    5416 1       1.12520000e+02    5.08021280e+02
   5392    5393    5394 1       1.18410000e+02    5.33794720e+02
   5392    5393    5415 1       1.21100000e+02    5.12958400e+02
   5392    5413    5412 1       1.20020000e+02    5.32790560e+02
   5392    5413    5414 1       1.19880000e+02    3.75723200e+02
   5393    5392    5413 1       1.20730000e+02    5.29945440e+02
   5393    5394    5395 1       1.19820000e+02    3.74300640e+02
   5393    5394    5396 1       1.20730000e+02    5.29945440e+02
   5393    5415    5416 1       1.21100000e+02    5.12958400e+02
   5393    5415    5450 1       1.21100000e+02    5.12958400e+02
   5394    5393    5415 1       1.21100000e+02    5.12958400e+02
   5394    5396    5397 1       1.20640000e+02    5.08439680e+02
   5394    5396    5412 1       1.20020000e+02    5.32790560e+02
   5395    5394    5396 1       1.19880000e+02    3.75723200e+02
   5396    5397    5398 1       1.14530000e+02    3.58485120e+02
   5396    5397    5399 1       1.16810000e+02    4.91368960e+02
   5396    5397    5407 1       1.24830000e+02    4.77729120e+02
   5396    5412    5399 1       1.20640000e+02    5.08439680e+02
   5396    5412    5413 1       1.20020000e+02    5.32790560e+02
   5397    5396    5412 1       1.20640000e+02    5.08439680e+02
   5397    5399    5400 1       1.14760000e+02    3.49364000e+02
   5397    5399    5401 1       1.22490000e+02    4.75804480e+02
   5397    5399    5412 1       1.16810000e+02    4.91368960e+02
   5397    5407    5405 1       9.60300000e+01    5.40070720e+02
   5397    5407    5408 1       1.12000000e+02    3.56811520e+02
   5397    5407    5409 1       1.03090000e+02    5.20322240e+02
   5398    5397    5399 1       1.14760000e+02    3.49364000e+02
   5398    5397    5407 1       1.13690000e+02    3.54217440e+02
   5399    5397    5407 1       1.22490000e+02    4.75804480e+02
   5399    5401    5402 1       1.12000000e+02    3.56811520e+02
   5399    5401    5403 1       9.60300000e+01    5.40070720e+02
   5399    5401    5409 1       1.03090000e+02    5.20322240e+02
   5399    5412    5413 1       1.20640000e+02    5.08439680e+02
   5400    5399    5401 1       1.13690000e+02    3.54217440e+02
   5400    5399    5412 1       1.14530000e+02    3.58485120e+02
   5401    5399    5412 1       1.24830000e+02    4.77729120e+02
   5401    5403    4470 1       1.24830000e+02    4.77729120e+02
   5401    5403    5404 1       1.13690000e+02    3.54217440e+02
   5401    5403    5405 1       1.22490000e+02    4.75804480e+02
   5401    5409    5407 1       1.03830000e+02    5.17477120e+02
   5401    5409    5410 1       1.11170000e+02    3.56895200e+02
   5401    5409    5411 1       1.11170000e+02    3.56895200e+02
   5402    5401    5409 1       1.11170000e+02    3.56895200e+02
   5403    5401    5402 1       1.12000000e+02    3.56811520e+02
   5403    5405    5406 1       1.14760000e+02    3.49364000e+02
   5405    5403    5404 1       1.14760000e+02    3.49364000e+02
   5405    5407    5408 1       1.12000000e+02    3.56811520e+02
   5407    5405    4469 1       1.24830000e+02    4.77729120e+02
   5407    5405    5403 1       1.22490000e+02    4.75804480e+02
   5407    5405    5406 1       1.13690000e+02    3.54217440e+02
   5407    5409    5410 1       1.11170000e+02    3.56895200e+02
   5407    5409    5411 1       1.11170000e+02    3.56895200e+02
   5408    5407    5409 1       1.11170000e+02    3.56895200e+02
   5409    5401    5403 1       1.03090000e+02    5.20322240e+02
   5409    5407    5405 1       1.03090000e+02    5.20322240e+02
   5410    5409    5411 1       1.07220000e+02    3.00494880e+02
   5412    5413    5414 1       1.19880000e+02    3.75723200e+02
   5415    5416    5417 1       1.20730000e+02    5.29945440e+02
   5415    5450    5449 1       1.20730000e+02    5.29945440e+02
   5415    5450    5451 1       1.19820000e+02    3.74300640e+02
   5416    5415    5450 1       1.18410000e+02    5.33794720e+02
   5416    5417    5418 1       1.19880000e+02    3.75723200e+02
   5416    5417    5419 1       1.20020000e+02    5.32790560e+02
   5417    5419    5420 1       1.20640000e+02    5.08439680e+02
   5417    5419    5449 1       1.20020000e+02    5.32790560e+02
   5418    5417    5419 1       1.19880000e+02    3.75723200e+02
   5419    5420    5421 1       1.14530000e+02    3.58485120e+02
   5419    5420    5422 1       1.16810000e+02    4.91368960e+02
   5419    5420    5444 1       1.24830000e+02    4.77729120e+02
   5419    5449    5422 1       1.20640000e+02    5.08439680e+02
   5419    5449    5450 1       1.20020000e+02    5.32790560e+02
   5420    5419    5449 1       1.20640000e+02    5.08439680e+02
   5420    5422    5423 1       1.14760000e+02    3.49364000e+02
   5420    5422    5424 1       1.22490000e+02    4.75804480e+02
   5420    5422    5449 1       1.16810000e+02    4.91368960e+02
   5420    5444    5442 1       9.60300000e+01    5.40070720e+02
   5420    5444    5445 1       1.12000000e+02    3.56811520e+02
   5420    5444    5446 1       1.03090000e+02    5.20322240e+02
   5421    5420    5422 1       1.14760000e+02    3.49364000e+02
   5421    5420    5444 1       1.13690000e+02    3.54217440e+02
   5422    5420    5444 1       1.22490000e+02    4.75804480e+02
   5422    5424    5425 1       1.12000000e+02    3.56811520e+02
   5422    5424    5426 1       9.60300000e+01    5.40070720e+02
   5422    5424    5446 1       1.03090000e+02    5.20322240e+02
   5422    5449    5450 1       1.20640000e+02    5.08439680e+02
   5423    5422    5424 1       1.13690000e+02    3.54217440e+02
   5423    5422    5449 1       1.14530000e+02    3.58485120e+02
   5424    5422    5449 1       1.24830000e+02    4.77729120e+02
   5424    5426    5427 1       1.13690000e+02    3.54217440e+02
   5424    5426    5428 1       1.24830000e+02    4.77729120e+02
   5424    5426    5442 1       1.22490000e+02    4.75804480e+02
   5424    5446    5444 1       1.03830000e+02    5.17477120e+02
   5424    5446    5447 1       1.11170000e+02    3.56895200e+02
   5424    5446    5448 1       1.11170000e+02    3.56895200e+02
   5425    5424    5426 1       1.12000000e+02    3.56811520e+02
   5425    5424    5446 1       1.11170000e+02    3.56895200e+02
   5426    5424    5446 1       1.03090000e+02    5.20322240e+02
   5426    5428    5429 1       1.20640000e+02    5.08439680e+02
   5426    5428    5437 1       1.20640000e+02    5.08439680e+02
   5426    5442    5429 1       1.16810000e+02    4.91368960e+02
   5426    5442    5443 1       1.14760000e+02    3.49364000e+02
   5426    5442    5444 1       1.22490000e+02    4.75804480e+02
   5427    5426    5428 1       1.14530000e+02    3.58485120e+02
   5427    5426    5442 1       1.14760000e+02    3.49364000e+02
   5428    5426    5442 1       1.16810000e+02    4.91368960e+02
   5428    5429    5430 1       1.20020000e+02    5.32790560e+02
   5428    5429    5442 1       1.20640000e+02    5.08439680e+02
   5428    5437    5436 1       1.20020000e+02    5.32790560e+02
   5428    5437    5438 1       1.20830000e+02    5.08272320e+02
   5429    5428    5437 1       1.20020000e+02    5.32790560e+02
   5429    5430    5431 1       1.20830000e+02    5.08272320e+02
   5429    5430    5435 1       1.20020000e+02    5.32790560e+02
   5429    5442    5443 1       1.14530000e+02    3.58485120e+02
   5429    5442    5444 1       1.24830000e+02    4.77729120e+02
   5430    5429    5442 1       1.20640000e+02    5.08439680e+02
   5430    5431    5432 1       1.10630000e+02    3.64928480e+02
   5430    5431    5433 1       1.10630000e+02    3.64928480e+02
   5430    5431    5434 1       1.10630000e+02    3.64928480e+02
   5430    5435    3678 1       1.20640000e+02    5.08439680e+02
   5430    5435    5436 1       1.20020000e+02    5.32790560e+02
   5431    5430    5435 1       1.20830000e+02    5.08272320e+02
   5432    5431    5433 1       1.07730000e+02    2.99574400e+02
   5432    5431    5434 1       1.07730000e+02    2.99574400e+02
   5433    5431    5434 1       1.07730000e+02    2.99574400e+02
   5435    3678    3679 1       1.14530000e+02    3.58485120e+02
   5435    3678    3680 1       1.16810000e+02    4.91368960e+02
   5435    5436    3680 1       1.20640000e+02    5.08439680e+02
   5435    5436    5437 1       1.20020000e+02    5.32790560e+02
   5436    3680    3678 1       1.16810000e+02    4.91368960e+02
   5436    3680    3681 1       1.14530000e+02    3.58485120e+02
   5436    5435    3678 1       1.20640000e+02    5.08439680e+02
   5437    5436    3680 1       1.20640000e+02    5.08439680e+02
   5437    5438    5439 1       1.10630000e+02    3.64928480e+02
   5437    5438    5440 1       1.10630000e+02    3.64928480e+02
   5437    5438    5441 1       1.10630000e+02    3.64928480e+02
   5438    5437    5436 1       1.20830000e+02    5.08272320e+02
   5439    5438    5440 1       1.07730000e+02    2.99574400e+02
   5439    5438    5441 1       1.07730000e+02    2.99574400e+02
   5440    5438    5441 1       1.07730000e+02    2.99574400e+02
   5442    5444    5445 1       1.12000000e+02    3.56811520e+02
   5442    5444    5446 1       1.03090000e+02    5.20322240e+02
   5443    5442    5444 1       1.13690000e+02    3.54217440e+02
   5444    5446    5447 1       1.11170000e+02    3.56895200e+02
   5444    5446    5448 1       1.11170000e+02    3.56895200e+02
   5445    5444    5446 1       1.11170000e+02    3.56895200e+02
   5447    5446    5448 1       1.07220000e+02    3.00494880e+02
   5449    5450    5451 1       1.19880000e+02    3.75723200e+02
   5452    5456    5457 1       1.10280000e+02    5.05761920e+02
   5452    5456    5461 1       1.13070000e+02    5.03000480e+02
   5452    5456    5485 1       1.13070000e+02    5.03000480e+02
   5453    5452    5454 1       1.07730000e+02    2.99574400e+02
   5453    5452    5455 1       1.07730000e+02    2.99574400e+02
   5453    5452    5456 1       1.10530000e+02    3.60326080e+02
   5454    5452    5455 1       1.07730000e+02    2.99574400e+02
   5454    5452    5456 1       1.10530000e+02    3.60326080e+02
   5455    5452    5456 1       1.10530000e+02    3.60326080e+02
   5456    5457    5458 1       1.10530000e+02    3.60326080e+02
   5456    5457    5459 1       1.10530000e+02    3.60326080e+02
   5456    5457    5460 1       1.10530000e+02    3.60326080e+02
   5456    5461    5462 1       1.10210000e+02    5.31033280e+02
   5456    5461    5482 1       1.21870000e+02    5.06012960e+02
   5456    5485    5484 1       1.10210000e+02    5.31033280e+02
   5456    5485    5486 1       1.21870000e+02    5.06012960e+02
   5457    5456    5461 1       1.13070000e+02    5.03000480e+02
   5457    5456    5485 1       1.13070000e+02    5.03000480e+02
   5458    5457    5459 1       1.07730000e+02    2.99574400e+02
   5458    5457    5460 1       1.07730000e+02    2.99574400e+02
   5459    5457    5460 1       1.07730000e+02    2.99574400e+02
   5461    5456    5485 1       1.12520000e+02    5.08021280e+02
   5461    5462    5463 1       1.18410000e+02    5.33794720e+02
   5461    5462    5484 1       1.21100000e+02    5.12958400e+02
   5461    5482    5481 1       1.20020000e+02    5.32790560e+02
   5461    5482    5483 1       1.19880000e+02    3.75723200e+02
   5462    5461    5482 1       1.20730000e+02    5.29945440e+02
   5462    5463    5464 1       1.19820000e+02    3.74300640e+02
   5462    5463    5465 1       1.20730000e+02    5.29945440e+02
   5462    5484    5485 1       1.21100000e+02    5.12958400e+02
   5462    5484    5519 1       1.21100000e+02    5.12958400e+02
   5463    5462    5484 1       1.21100000e+02    5.12958400e+02
   5463    5465    5466 1       1.20640000e+02    5.08439680e+02
   5463    5465    5481 1       1.20020000e+02    5.32790560e+02
   5464    5463    5465 1       1.19880000e+02    3.75723200e+02
   5465    5466    5467 1       1.14530000e+02    3.58485120e+02
   5465    5466    5468 1       1.16810000e+02    4.91368960e+02
   5465    5466    5476 1       1.24830000e+02    4.77729120e+02
   5465    5481    5468 1       1.20640000e+02    5.08439680e+02
   5465    5481    5482 1       1.20020000e+02    5.32790560e+02
   5466    5465    5481 1       1.20640000e+02    5.08439680e+02
   5466    5468    5469 1       1.14760000e+02    3.49364000e+02
   5466    5468    5470 1       1.22490000e+02    4.75804480e+02
   5466    5468    5481 1       1.16810000e+02    4.91368960e+02
   5466    5476    5474 1       9.60300000e+01    5.40070720e+02
   5466    5476    5477 1       1.12000000e+02    3.56811520e+02
   5466    5476    5478 1       1.03090000e+02    5.20322240e+02
   5467    5466    5468 1       1.14760000e+02    3.49364000e+02
   5467    5466    5476 1       1.13690000e+02    3.54217440e+02
   5468    5466    5476 1       1.22490000e+02    4.75804480e+02
   5468    5470    5471 1       1.12000000e+02    3.56811520e+02
   5468    5470    5472 1       9.60300000e+01    5.40070720e+02
   5468    5470    5478 1       1.03090000e+02    5.20322240e+02
   5468    5481    5482 1       1.20640000e+02    5.08439680e+02
   5469    5468    5470 1       1.13690000e+02    3.54217440e+02
   5469    5468    5481 1       1.14530000e+02    3.58485120e+02
   5470    5468    5481 1       1.24830000e+02    4.77729120e+02
   5470    5472    3711 1       1.24830000e+02    4.77729120e+02
   5470    5472    5473 1       1.13690000e+02    3.54217440e+02
   5470    5472    5474 1       1.22490000e+02    4.75804480e+02
   5470    5478    5476 1       1.03830000e+02    5.17477120e+02
   5470    5478    5479 1       1.11170000e+02    3.56895200e+02
   5470    5478    5480 1       1.11170000e+02    3.56895200e+02
   5471    5470    5478 1       1.11170000e+02    3.56895200e+02
   5472    5470    5471 1       1.12000000e+02    3.56811520e+02
   5472    5474    5475 1       1.14760000e+02    3.49364000e+02
   5474    5472    5473 1       1.14760000e+02    3.49364000e+02
   5474    5476    5477 1       1.12000000e+02    3.56811520e+02
   5476    5474    3710 1       1.24830000e+02    4.77729120e+02
   5476    5474    5472 1       1.22490000e+02    4.75804480e+02
   5476    5474    5475 1       1.13690000e+02    3.54217440e+02
   5476    5478    5479 1       1.11170000e+02    3.56895200e+02
   5476    5478    5480 1       1.11170000e+02    3.56895200e+02
   5477    5476    5478 1       1.11170000e+02    3.56895200e+02
   5478    5470    5472 1       1.03090000e+02    5.20322240e+02
   5478    5476    5474 1       1.03090000e+02    5.20322240e+02
   5479    5478    5480 1       1.07220000e+02    3.00494880e+02
   5481    5482    5483 1       1.19880000e+02    3.75723200e+02
   5484    5485    5486 1       1.20730000e+02    5.29945440e+02
   5484    5519    5518 1       1.20730000e+02    5.29945440e+02
   5484    5519    5520 1       1.19820000e+02    3.74300640e+02
   5485    5484    5519 1       1.18410000e+02    5.33794720e+02
   5485    5486    5487 1       1.19880000e+02    3.75723200e+02
   5485    5486    5488 1       1.20020000e+02    5.32790560e+02
   5486    5488    5489 1       1.20640000e+02    5.08439680e+02
   5486    5488    5518 1       1.20020000e+02    5.32790560e+02
   5487    5486    5488 1       1.19880000e+02    3.75723200e+02
   5488    5489    5490 1       1.14530000e+02    3.58485120e+02
   5488    5489    5491 1       1.16810000e+02    4.91368960e+02
   5488    5489    5513 1       1.24830000e+02    4.77729120e+02
   5488    5518    5491 1       1.20640000e+02    5.08439680e+02
   5488    5518    5519 1       1.20020000e+02    5.32790560e+02
   5489    5488    5518 1       1.20640000e+02    5.08439680e+02
   5489    5491    5492 1       1.14760000e+02    3.49364000e+02
   5489    5491    5493 1       1.22490000e+02    4.75804480e+02
   5489    5491    5518 1       1.16810000e+02    4.91368960e+02
   5489    5513    5511 1       9.60300000e+01    5.40070720e+02
   5489    5513    5514 1       1.12000000e+02    3.56811520e+02
   5489    5513    5515 1       1.03090000e+02    5.20322240e+02
   5490    5489    5491 1       1.14760000e+02    3.49364000e+02
   5490    5489    5513 1       1.13690000e+02    3.54217440e+02
   5491    5489    5513 1       1.22490000e+02    4.75804480e+02
   5491    5493    5494 1       1.12000000e+02    3.56811520e+02
   5491    5493    5495 1       9.60300000e+01    5.40070720e+02
   5491    5493    5515 1       1.03090000e+02    5.20322240e+02
   5491    5518    5519 1       1.20640000e+02    5.08439680e+02
   5492    5491    5493 1       1.13690000e+02    3.54217440e+02
   5492    5491    5518 1       1.14530000e+02    3.58485120e+02
   5493    5491    5518 1       1.24830000e+02    4.77729120e+02
   5493    5495    5496 1       1.13690000e+02    3.54217440e+02
   5493    5495    5497 1       1.24830000e+02    4.77729120e+02
   5493    5495    5511 1       1.22490000e+02    4.75804480e+02
   5493    5515    5513 1       1.03830000e+02    5.17477120e+02
   5493    5515    5516 1       1.11170000e+02    3.56895200e+02
   5493    5515    5517 1       1.11170000e+02    3.56895200e+02
   5494    5493    5495 1       1.12000000e+02    3.56811520e+02
   5494    5493    5515 1       1.11170000e+02    3.56895200e+02
   5495    5493    5515 1       1.03090000e+02    5.20322240e+02
   5495    5497    5498 1       1.20640000e+02    5.08439680e+02
   5495    5497    5506 1       1.20640000e+02    5.08439680e+02
   5495    5511    5498 1       1.16810000e+02    4.91368960e+02
   5495    5511    5512 1       1.14760000e+02    3.49364000e+02
   5495    5511    5513 1       1.22490000e+02    4.75804480e+02
   5496    5495    5497 1       1.14530000e+02    3.58485120e+02
   5496    5495    5511 1       1.14760000e+02    3.49364000e+02
   5497    5495    5511 1       1.16810000e+02    4.91368960e+02
   5497    5498    5499 1       1.20020000e+02    5.32790560e+02
   5497    5498    5511 1       1.20640000e+02    5.08439680e+02
   5497    5506    5505 1       1.20020000e+02    5.32790560e+02
   5497    5506    5507 1       1.20830000e+02    5.08272320e+02
   5498    5497    5506 1       1.20020000e+02    5.32790560e+02
   5498    5499    5500 1       1.20830000e+02    5.08272320e+02
   5498    5499    5504 1       1.20020000e+02    5.32790560e+02
   5498    5511    5512 1       1.14530000e+02    3.58485120e+02
   5498    5511    5513 1       1.24830000e+02    4.77729120e+02
   5499    5498    5511 1       1.20640000e+02    5.08439680e+02
   5499    5500    5501 1       1.10630000e+02    3.64928480e+02
   5499    5500    5502 1       1.10630000e+02    3.64928480e+02
   5499    5500    5503 1       1.10630000e+02    3.64928480e+02
   5499    5504    5505 1       1.20020000e+02    5.32790560e+02
   5499    5504    6026 1       1.20640000e+02    5.08439680e+02
   5500    5499    5504 1       1.20830000e+02    5.08272320e+02
   5501    5500    5502 1       1.07730000e+02    2.99574400e+02
   5501    5500    5503 1       1.07730000e+02    2.99574400e+02
   5502    5500    5503 1       1.07730000e+02    2.99574400e+02
   5504    5505    5506 1       1.20020000e+02    5.32790560e+02
   5504    5505    6024 1       1.20640000e+02    5.08439680e+02
   5504    6026    6024 1       1.16810000e+02    4.91368960e+02
   5504    6026    6027 1       1.14530000e+02    3.58485120e+02
   5505    5504    6026 1       1.20640000e+02    5.08439680e+02
   5505    6024    6025 1       1.14530000e+02    3.58485120e+02
   5505    6024    6026 1       1.16810000e+02    4.91368960e+02
   5506    5505    6024 1       1.20640000e+02    5.08439680e+02
   5506    5507    5508 1       1.10630000e+02    3.64928480e+02
   5506    5507    5509 1       1.10630000e+02    3.64928480e+02
   5506    5507    5510 1       1.10630000e+02    3.64928480e+02
   5507    5506    5505 1       1.20830000e+02    5.08272320e+02
   5508    5507    5509 1       1.07730000e+02    2.99574400e+02
   5508    5507    5510 1       1.07730000e+02    2.99574400e+02
   5509    5507    5510 1       1.07730000e+02    2.99574400e+02
   5511    5513    5514 1       1.12000000e+02    3.56811520e+02
   5511    5513    5515 1       1.03090000e+02    5.20322240e+02
   5512    5511    5513 1       1.13690000e+02    3.54217440e+02
   5513    5515    5516 1       1.11170000e+02    3.56895200e+02
   5513    5515    5517 1       1.11170000e+02    3.56895200e+02
   5514    5513    5515 1       1.11170000e+02    3.56895200e+02
   5516    5515    5517 1       1.07220000e+02    3.00494880e+02
   5518    5519    5520 1       1.19880000e+02    3.75723200e+02
   5521    5525    5526 1       1.10280000e+02    5.05761920e+02
   5521    5525    5530 1       1.13070000e+02    5.03000480e+02
   5521    5525    5554 1       1.13070000e+02    5.03000480e+02
   5522    5521    5523 1       1.07730000e+02    2.99574400e+02
   5522    5521    5524 1       1.07730000e+02    2.99574400e+02
   5522    5521    5525 1       1.10530000e+02    3.60326080e+02
   5523    5521    5524 1       1.07730000e+02    2.99574400e+02
   5523    5521    5525 1       1.10530000e+02    3.60326080e+02
   5524    5521    5525 1       1.10530000e+02    3.60326080e+02
   5525    5526    5527 1       1.10530000e+02    3.60326080e+02
   5525    5526    5528 1       1.10530000e+02    3.60326080e+02
   5525    5526    5529 1       1.10530000e+02    3.60326080e+02
   5525    5530    5531 1       1.10210000e+02    5.31033280e+02
   5525    5530    5551 1       1.21870000e+02    5.06012960e+02
   5525    5554    5553 1       1.10210000e+02    5.31033280e+02
   5525    5554    5555 1       1.21870000e+02    5.06012960e+02
   5526    5525    5530 1       1.13070000e+02    5.03000480e+02
   5526    5525    5554 1       1.13070000e+02    5.03000480e+02
   5527    5526    5528 1       1.07730000e+02    2.99574400e+02
   5527    5526    5529 1       1.07730000e+02    2.99574400e+02
   5528    5526    5529 1       1.07730000e+02    2.99574400e+02
   5530    5525    5554 1       1.12520000e+02    5.08021280e+02
   5530    5531    5532 1       1.18410000e+02    5.33794720e+02
   5530    5531    5553 1       1.21100000e+02    5.12958400e+02
   5530    5551    5550 1       1.20020000e+02    5.32790560e+02
   5530    5551    5552 1       1.19880000e+02    3.75723200e+02
   5531    5530    5551 1       1.20730000e+02    5.29945440e+02
   5531    5532    5533 1       1.19820000e+02    3.74300640e+02
   5531    5532    5534 1       1.20730000e+02    5.29945440e+02
   5531    5553    5554 1       1.21100000e+02    5.12958400e+02
   5531    5553    5588 1       1.21100000e+02    5.12958400e+02
   5532    5531    5553 1       1.21100000e+02    5.12958400e+02
   5532    5534    5535 1       1.20640000e+02    5.08439680e+02
   5532    5534    5550 1       1.20020000e+02    5.32790560e+02
   5533    5532    5534 1       1.19880000e+02    3.75723200e+02
   5534    5535    5536 1       1.14530000e+02    3.58485120e+02
   5534    5535    5537 1       1.16810000e+02    4.91368960e+02
   5534    5535    5545 1       1.24830000e+02    4.77729120e+02
   5534    5550    5537 1       1.20640000e+02    5.08439680e+02
   5534    5550    5551 1       1.20020000e+02    5.32790560e+02
   5535    5534    5550 1       1.20640000e+02    5.08439680e+02
   5535    5537    5538 1       1.14760000e+02    3.49364000e+02
   5535    5537    5539 1       1.22490000e+02    4.75804480e+02
   5535    5537    5550 1       1.16810000e+02    4.91368960e+02
   5535    5545    5543 1       9.60300000e+01    5.40070720e+02
   5535    5545    5546 1       1.12000000e+02    3.56811520e+02
   5535    5545    5547 1       1.03090000e+02    5.20322240e+02
   5536    5535    5537 1       1.14760000e+02    3.49364000e+02
   5536    5535    5545 1       1.13690000e+02    3.54217440e+02
   5537    5535    5545 1       1.22490000e+02    4.75804480e+02
   5537    5539    5540 1       1.12000000e+02    3.56811520e+02
   5537    5539    5541 1       9.60300000e+01    5.40070720e+02
   5537    5539    5547 1       1.03090000e+02    5.20322240e+02
   5537    5550    5551 1       1.20640000e+02    5.08439680e+02
   5538    5537    5539 1       1.13690000e+02    3.54217440e+02
   5538    5537    5550 1       1.14530000e+02    3.58485120e+02
   5539    5537    5550 1       1.24830000e+02    4.77729120e+02
   5539    5541    4746 1       1.24830000e+02    4.77729120e+02
   5539    5541    5542 1       1.13690000e+02    3.54217440e+02
   5539    5541    5543 1       1.22490000e+02    4.75804480e+02
   5539    5547    5545 1       1.03830000e+02    5.17477120e+02
   5539    5547    5548 1       1.11170000e+02    3.56895200e+02
   5539    5547    5549 1       1.11170000e+02    3.56895200e+02
   5540    5539    5547 1       1.11170000e+02    3.56895200e+02
   5541    5539    5540 1       1.12000000e+02    3.56811520e+02
   5541    5543    5544 1       1.14760000e+02    3.49364000e+02
   5543    5541    5542 1       1.14760000e+02    3.49364000e+02
   5543    5545    5546 1       1.12000000e+02    3.56811520e+02
   5545    5543    4745 1       1.24830000e+02    4.77729120e+02
   5545    5543    5541 1       1.22490000e+02    4.75804480e+02
   5545    5543    5544 1       1.13690000e+02    3.54217440e+02
   5545    5547    5548 1       1.11170000e+02    3.56895200e+02
   5545    5547    5549 1       1.11170000e+02    3.56895200e+02
   5546    5545    5547 1       1.11170000e+02    3.56895200e+02
   5547    5539    5541 1       1.03090000e+02    5.20322240e+02
   5547    5545    5543 1       1.03090000e+02    5.20322240e+02
   5548    5547    5549 1       1.07220000e+02    3.00494880e+02
   5550    5551    5552 1       1.19880000e+02    3.75723200e+02
   5553    5554    5555 1       1.20730000e+02    5.29945440e+02
   5553    5588    5587 1       1.20730000e+02    5.29945440e+02
   5553    5588    5589 1       1.19820000e+02    3.74300640e+02
   5554    5553    5588 1       1.18410000e+02    5.33794720e+02
   5554    5555    5556 1       1.19880000e+02    3.75723200e+02
   5554    5555    5557 1       1.20020000e+02    5.32790560e+02
   5555    5557    5558 1       1.20640000e+02    5.08439680e+02
   5555    5557    5587 1       1.20020000e+02    5.32790560e+02
   5556    5555    5557 1       1.19880000e+02    3.75723200e+02
   5557    5558    5559 1       1.14530000e+02    3.58485120e+02
   5557    5558    5560 1       1.16810000e+02    4.91368960e+02
   5557    5558    5582 1       1.24830000e+02    4.77729120e+02
   5557    5587    5560 1       1.20640000e+02    5.08439680e+02
   5557    5587    5588 1       1.20020000e+02    5.32790560e+02
   5558    5557    5587 1       1.20640000e+02    5.08439680e+02
   5558    5560    5561 1       1.14760000e+02    3.49364000e+02
   5558    5560    5562 1       1.22490000e+02    4.75804480e+02
   5558    5560    5587 1       1.16810000e+02    4.91368960e+02
   5558    5582    5580 1       9.60300000e+01    5.40070720e+02
   5558    5582    5583 1       1.12000000e+02    3.56811520e+02
   5558    5582    5584 1       1.03090000e+02    5.20322240e+02
   5559    5558    5560 1       1.14760000e+02    3.49364000e+02
   5559    5558    5582 1       1.13690000e+02    3.54217440e+02
   5560    5558    5582 1       1.22490000e+02    4.75804480e+02
   5560    5562    5563 1       1.12000000e+02    3.56811520e+02
   5560    5562    5564 1       9.60300000e+01    5.40070720e+02
   5560    5562    5584 1       1.03090000e+02    5.20322240e+02
   5560    5587    5588 1       1.20640000e+02    5.08439680e+02
   5561    5560    5562 1       1.13690000e+02    3.54217440e+02
   5561    5560    5587 1       1.14530000e+02    3.58485120e+02
   5562    5560    5587 1       1.24830000e+02    4.77729120e+02
   5562    5564    5565 1       1.13690000e+02    3.54217440e+02
   5562    5564    5566 1       1.24830000e+02    4.77729120e+02
   5562    5564    5580 1       1.22490000e+02    4.75804480e+02
   5562    5584    5582 1       1.03830000e+02    5.17477120e+02
   5562    5584    5585 1       1.11170000e+02    3.56895200e+02
   5562    5584    5586 1       1.11170000e+02    3.56895200e+02
   5563    5562    5564 1       1.12000000e+02    3.56811520e+02
   5563    5562    5584 1       1.11170000e+02    3.56895200e+02
   5564    5562    5584 1       1.03090000e+02    5.20322240e+02
   5564    5566    5567 1       1.20640000e+02    5.08439680e+02
   5564    5566    5575 1       1.20640000e+02    5.08439680e+02
   5564    5580    5567 1       1.16810000e+02    4.91368960e+02
   5564    5580    5581 1       1.14760000e+02    3.49364000e+02
   5564    5580    5582 1       1.22490000e+02    4.75804480e+02
   5565    5564    5566 1       1.14530000e+02    3.58485120e+02
   5565    5564    5580 1       1.14760000e+02    3.49364000e+02
   5566    5564    5580 1       1.16810000e+02    4.91368960e+02
   5566    5567    5568 1       1.20020000e+02    5.32790560e+02
   5566    5567    5580 1       1.20640000e+02    5.08439680e+02
   5566    5575    5574 1       1.20020000e+02    5.32790560e+02
   5566    5575    5576 1       1.20830000e+02    5.08272320e+02
   5567    5566    5575 1       1.20020000e+02    5.32790560e+02
   5567    5568    5569 1       1.20830000e+02    5.08272320e+02
   5567    5568    5573 1       1.20020000e+02    5.32790560e+02
   5567    5580    5581 1       1.14530000e+02    3.58485120e+02
   5567    5580    5582 1       1.24830000e+02    4.77729120e+02
   5568    5567    5580 1       1.20640000e+02    5.08439680e+02
   5568    5569    5570 1       1.10630000e+02    3.64928480e+02
   5568    5569    5571 1       1.10630000e+02    3.64928480e+02
   5568    5569    5572 1       1.10630000e+02    3.64928480e+02
   5568    5573    1334 1       1.20640000e+02    5.08439680e+02
   5568    5573    5574 1       1.20020000e+02    5.32790560e+02
   5569    5568    5573 1       1.20830000e+02    5.08272320e+02
   5570    5569    5571 1       1.07730000e+02    2.99574400e+02
   5570    5569    5572 1       1.07730000e+02    2.99574400e+02
   5571    5569    5572 1       1.07730000e+02    2.99574400e+02
   5573    1334    1332 1       1.16810000e+02    4.91368960e+02
   5573    1334    1335 1       1.14530000e+02    3.58485120e+02
   5573    5574    1332 1       1.20640000e+02    5.08439680e+02
   5573    5574    5575 1       1.20020000e+02    5.32790560e+02
   5574    1332    1333 1       1.14530000e+02    3.58485120e+02
   5574    1332    1334 1       1.16810000e+02    4.91368960e+02
   5574    5573    1334 1       1.20640000e+02    5.08439680e+02
   5575    5574    1332 1       1.20640000e+02    5.08439680e+02
   5575    5576    5577 1       1.10630000e+02    3.64928480e+02
   5575    5576    5578 1       1.10630000e+02    3.64928480e+02
   5575    5576    5579 1       1.10630000e+02    3.64928480e+02
   5576    5575    5574 1       1.20830000e+02    5.08272320e+02
   5577    5576    5578 1       1.07730000e+02    2.99574400e+02
   5577    5576    5579 1       1.07730000e+02    2.99574400e+02
   5578    5576    5579 1       1.07730000e+02    2.99574400e+02
   5580    5582    5583 1       1.12000000e+02    3.56811520e+02
   5580    5582    5584 1       1.03090000e+02    5.20322240e+02
   5581    5580    5582 1       1.13690000e+02    3.54217440e+02
   5582    5584    5585 1       1.11170000e+02    3.56895200e+02
   5582    5584    5586 1       1.11170000e+02    3.56895200e+02
   5583    5582    5584 1       1.11170000e+02    3.56895200e+02
   5585    5584    5586 1       1.07220000e+02    3.00494880e+02
   5587    5588    5589 1       1.19880000e+02    3.75723200e+02
   5590    5594    5595 1       1.10280000e+02    5.05761920e+02
   5590    5594    5599 1       1.13070000e+02    5.03000480e+02
   5590    5594    5623 1       1.13070000e+02    5.03000480e+02
   5591    5590    5592 1       1.07730000e+02    2.99574400e+02
   5591    5590    5593 1       1.07730000e+02    2.99574400e+02
   5591    5590    5594 1       1.10530000e+02    3.60326080e+02
   5592    5590    5593 1       1.07730000e+02    2.99574400e+02
   5592    5590    5594 1       1.10530000e+02    3.60326080e+02
   5593    5590    5594 1       1.10530000e+02    3.60326080e+02
   5594    5595    5596 1       1.10530000e+02    3.60326080e+02
   5594    5595    5597 1       1.10530000e+02    3.60326080e+02
   5594    5595    5598 1       1.10530000e+02    3.60326080e+02
   5594    5599    5600 1       1.10210000e+02    5.31033280e+02
   5594    5599    5620 1       1.21870000e+02    5.06012960e+02
   5594    5623    5622 1       1.10210000e+02    5.31033280e+02
   5594    5623    5624 1       1.21870000e+02    5.06012960e+02
   5595    5594    5599 1       1.13070000e+02    5.03000480e+02
   5595    5594    5623 1       1.13070000e+02    5.03000480e+02
   5596    5595    5597 1       1.07730000e+02    2.99574400e+02
   5596    5595    5598 1       1.07730000e+02    2.99574400e+02
   5597    5595    5598 1       1.07730000e+02    2.99574400e+02
   5599    5594    5623 1       1.12520000e+02    5.08021280e+02
   5599    5600    5601 1       1.18410000e+02    5.33794720e+02
   5599    5600    5622 1       1.21100000e+02    5.12958400e+02
   5599    5620    5619 1       1.20020000e+02    5.32790560e+02
   5599    5620    5621 1       1.19880000e+02    3.75723200e+02
   5600    5599    5620 1       1.20730000e+02    5.29945440e+02
   5600    5601    5602 1       1.19820000e+02    3.74300640e+02
   5600    5601    5603 1       1.20730000e+02    5.29945440e+02
   5600    5622    5623 1       1.21100000e+02    5.12958400e+02
   5600    5622    5657 1       1.21100000e+02    5.12958400e+02
   5601    5600    5622 1       1.21100000e+02    5.12958400e+02
   5601    5603    5604 1       1.20640000e+02    5.08439680e+02
   5601    5603    5619 1       1.20020000e+02    5.32790560e+02
   5602    5601    5603 1       1.19880000e+02    3.75723200e+02
   5603    5604    5605 1       1.14530000e+02    3.58485120e+02
   5603    5604    5606 1       1.16810000e+02    4.91368960e+02
   5603    5604    5614 1       1.24830000e+02    4.77729120e+02
   5603    5619    5606 1       1.20640000e+02    5.08439680e+02
   5603    5619    5620 1       1.20020000e+02    5.32790560e+02
   5604    5603    5619 1       1.20640000e+02    5.08439680e+02
   5604    5606    5607 1       1.14760000e+02    3.49364000e+02
   5604    5606    5608 1       1.22490000e+02    4.75804480e+02
   5604    5606    5619 1       1.16810000e+02    4.91368960e+02
   5604    5614    5612 1       9.60300000e+01    5.40070720e+02
   5604    5614    5615 1       1.12000000e+02    3.56811520e+02
   5604    5614    5616 1       1.03090000e+02    5.20322240e+02
   5605    5604    5606 1       1.14760000e+02    3.49364000e+02
   5605    5604    5614 1       1.13690000e+02    3.54217440e+02
   5606    5604    5614 1       1.22490000e+02    4.75804480e+02
   5606    5608    5609 1       1.12000000e+02    3.56811520e+02
   5606    5608    5610 1       9.60300000e+01    5.40070720e+02
   5606    5608    5616 1       1.03090000e+02    5.20322240e+02
   5606    5619    5620 1       1.20640000e+02    5.08439680e+02
   5607    5606    5608 1       1.13690000e+02    3.54217440e+02
   5607    5606    5619 1       1.14530000e+02    3.58485120e+02
   5608    5606    5619 1       1.24830000e+02    4.77729120e+02
   5608    5610    3917 1       1.24830000e+02    4.77729120e+02
   5608    5610    5611 1       1.13690000e+02    3.54217440e+02
   5608    5610    5612 1       1.22490000e+02    4.75804480e+02
   5608    5616    5614 1       1.03830000e+02    5.17477120e+02
   5608    5616    5617 1       1.11170000e+02    3.56895200e+02
   5608    5616    5618 1       1.11170000e+02    3.56895200e+02
   5609    5608    5616 1       1.11170000e+02    3.56895200e+02
   5610    5608    5609 1       1.12000000e+02    3.56811520e+02
   5610    5612    5613 1       1.14760000e+02    3.49364000e+02
   5612    5610    5611 1       1.14760000e+02    3.49364000e+02
   5612    5614    5615 1       1.12000000e+02    3.56811520e+02
   5614    5612    3918 1       1.24830000e+02    4.77729120e+02
   5614    5612    5610 1       1.22490000e+02    4.75804480e+02
   5614    5612    5613 1       1.13690000e+02    3.54217440e+02
   5614    5616    5617 1       1.11170000e+02    3.56895200e+02
   5614    5616    5618 1       1.11170000e+02    3.56895200e+02
   5615    5614    5616 1       1.11170000e+02    3.56895200e+02
   5616    5608    5610 1       1.03090000e+02    5.20322240e+02
   5616    5614    5612 1       1.03090000e+02    5.20322240e+02
   5617    5616    5618 1       1.07220000e+02    3.00494880e+02
   5619    5620    5621 1       1.19880000e+02    3.75723200e+02
   5622    5623    5624 1       1.20730000e+02    5.29945440e+02
   5622    5657    5656 1       1.20730000e+02    5.29945440e+02
   5622    5657    5658 1       1.19820000e+02    3.74300640e+02
   5623    5622    5657 1       1.18410000e+02    5.33794720e+02
   5623    5624    5625 1       1.19880000e+02    3.75723200e+02
   5623    5624    5626 1       1.20020000e+02    5.32790560e+02
   5624    5626    5627 1       1.20640000e+02    5.08439680e+02
   5624    5626    5656 1       1.20020000e+02    5.32790560e+02
   5625    5624    5626 1       1.19880000e+02    3.75723200e+02
   5626    5627    5628 1       1.14530000e+02    3.58485120e+02
   5626    5627    5629 1       1.16810000e+02    4.91368960e+02
   5626    5627    5651 1       1.24830000e+02    4.77729120e+02
   5626    5656    5629 1       1.20640000e+02    5.08439680e+02
   5626    5656    5657 1       1.20020000e+02    5.32790560e+02
   5627    5626    5656 1       1.20640000e+02    5.08439680e+02
   5627    5629    5630 1       1.14760000e+02    3.49364000e+02
   5627    5629    5631 1       1.22490000e+02    4.75804480e+02
   5627    5629    5656 1       1.16810000e+02    4.91368960e+02
   5627    5651    5649 1       9.60300000e+01    5.40070720e+02
   5627    5651    5652 1       1.12000000e+02    3.56811520e+02
   5627    5651    5653 1       1.03090000e+02    5.20322240e+02
   5628    5627    5629 1       1.14760000e+02    3.49364000e+02
   5628    5627    5651 1       1.13690000e+02    3.54217440e+02
   5629    5627    5651 1       1.22490000e+02    4.75804480e+02
   5629    5631    5632 1       1.12000000e+02    3.56811520e+02
   5629    5631    5633 1       9.60300000e+01    5.40070720e+02
   5629    5631    5653 1       1.03090000e+02    5.20322240e+02
   5629    5656    5657 1       1.20640000e+02    5.08439680e+02
   5630    5629    5631 1       1.13690000e+02    3.54217440e+02
   5630    5629    5656 1       1.14530000e+02    3.58485120e+02
   5631    5629    5656 1       1.24830000e+02    4.77729120e+02
   5631    5633    5634 1       1.13690000e+02    3.54217440e+02
   5631    5633    5635 1       1.24830000e+02    4.77729120e+02
   5631    5633    5649 1       1.22490000e+02    4.75804480e+02
   5631    5653    5651 1       1.03830000e+02    5.17477120e+02
   5631    5653    5654 1       1.11170000e+02    3.56895200e+02
   5631    5653    5655 1       1.11170000e+02    3.56895200e+02
   5632    5631    5633 1       1.12000000e+02    3.56811520e+02
   5632    5631    5653 1       1.11170000e+02    3.56895200e+02
   5633    5631    5653 1       1.03090000e+02    5.20322240e+02
   5633    5635    5636 1       1.20640000e+02    5.08439680e+02
   5633    5635    5644 1       1.20640000e+02    5.08439680e+02
   5633    5649    5636 1       1.16810000e+02    4.91368960e+02
   5633    5649    5650 1       1.14760000e+02    3.49364000e+02
   5633    5649    5651 1       1.22490000e+02    4.75804480e+02
   5634    5633    5635 1       1.14530000e+02    3.58485120e+02
   5634    5633    5649 1       1.14760000e+02    3.49364000e+02
   5635    5633    5649 1       1.16810000e+02    4.91368960e+02
   5635    5636    5637 1       1.20020000e+02    5.32790560e+02
   5635    5636    5649 1       1.20640000e+02    5.08439680e+02
   5635    5644    5643 1       1.20020000e+02    5.32790560e+02
   5635    5644    5645 1       1.20830000e+02    5.08272320e+02
   5636    5635    5644 1       1.20020000e+02    5.32790560e+02
   5636    5637    5638 1       1.20830000e+02    5.08272320e+02
   5636    5637    5642 1       1.20020000e+02    5.32790560e+02
   5636    5649    5650 1       1.14530000e+02    3.58485120e+02
   5636    5649    5651 1       1.24830000e+02    4.77729120e+02
   5637    5636    5649 1       1.20640000e+02    5.08439680e+02
   5637    5638    5639 1       1.10630000e+02    3.64928480e+02
   5637    5638    5640 1       1.10630000e+02    3.64928480e+02
   5637    5638    5641 1       1.10630000e+02    3.64928480e+02
   5637    5642     299 1       1.20640000e+02    5.08439680e+02
   5637    5642    5643 1       1.20020000e+02    5.32790560e+02
   5638    5637    5642 1       1.20830000e+02    5.08272320e+02
   5639    5638    5640 1       1.07730000e+02    2.99574400e+02
   5639    5638    5641 1       1.07730000e+02    2.99574400e+02
   5640    5638    5641 1       1.07730000e+02    2.99574400e+02
   5642     299     297 1       1.16810000e+02    4.91368960e+02
   5642     299     300 1       1.14530000e+02    3.58485120e+02
   5642    5643     297 1       1.20640000e+02    5.08439680e+02
   5642    5643    5644 1       1.20020000e+02    5.32790560e+02
   5643     297     298 1       1.14530000e+02    3.58485120e+02
   5643     297     299 1       1.16810000e+02    4.91368960e+02
   5643    5642     299 1       1.20640000e+02    5.08439680e+02
   5644    5643     297 1       1.20640000e+02    5.08439680e+02
   5644    5645    5646 1       1.10630000e+02    3.64928480e+02
   5644    5645    5647 1       1.10630000e+02    3.64928480e+02
   5644    5645    5648 1       1.10630000e+02    3.64928480e+02
   5645    5644    5643 1       1.20830000e+02    5.08272320e+02
   5646    5645    5647 1       1.07730000e+02    2.99574400e+02
   5646    5645    5648 1       1.07730000e+02    2.99574400e+02
   5647    5645    5648 1       1.07730000e+02    2.99574400e+02
   5649    5651    5652 1       1.12000000e+02    3.56811520e+02
   5649    5651    5653 1       1.03090000e+02    5.20322240e+02
   5650    5649    5651 1       1.13690000e+02    3.54217440e+02
   5651    5653    5654 1       1.11170000e+02    3.56895200e+02
   5651    5653    5655 1       1.11170000e+02    3.56895200e+02
   5652    5651    5653 1       1.11170000e+02    3.56895200e+02
   5654    5653    5655 1       1.07220000e+02    3.00494880e+02
   5656    5657    5658 1       1.19880000e+02    3.75723200e+02
   5659    5663    5664 1       1.10280000e+02    5.05761920e+02
   5659    5663    5668 1       1.13070000e+02    5.03000480e+02
   5659    5663    5692 1       1.13070000e+02    5.03000480e+02
   5660    5659    5661 1       1.07730000e+02    2.99574400e+02
   5660    5659    5662 1       1.07730000e+02    2.99574400e+02
   5660    5659    5663 1       1.10530000e+02    3.60326080e+02
   5661    5659    5662 1       1.07730000e+02    2.99574400e+02
   5661    5659    5663 1       1.10530000e+02    3.60326080e+02
   5662    5659    5663 1       1.10530000e+02    3.60326080e+02
   5663    5664    5665 1       1.10530000e+02    3.60326080e+02
   5663    5664    5666 1       1.10530000e+02    3.60326080e+02
   5663    5664    5667 1       1.10530000e+02    3.60326080e+02
   5663    5668    5669 1       1.10210000e+02    5.31033280e+02
   5663    5668    5689 1       1.21870000e+02    5.06012960e+02
   5663    5692    5691 1       1.10210000e+02    5.31033280e+02
   5663    5692    5693 1       1.21870000e+02    5.06012960e+02
   5664    5663    5668 1       1.13070000e+02    5.03000480e+02
   5664    5663    5692 1       1.13070000e+02    5.03000480e+02
   5665    5664    5666 1       1.07730000e+02    2.99574400e+02
   5665    5664    5667 1       1.07730000e+02    2.99574400e+02
   5666    5664    5667 1       1.07730000e+02    2.99574400e+02
   5668    5663    5692 1       1.12520000e+02    5.08021280e+02
   5668    5669    5670 1       1.18410000e+02    5.33794720e+02
   5668    5669    5691 1       1.21100000e+02    5.12958400e+02
   5668    5689    5688 1       1.20020000e+02    5.32790560e+02
   5668    5689    5690 1       1.19880000e+02    3.75723200e+02
   5669    5668    5689 1       1.20730000e+02    5.29945440e+02
   5669    5670    5671 1       1.19820000e+02    3.74300640e+02
   5669    5670    5672 1       1.20730000e+02    5.29945440e+02
   5669    5691    5692 1       1.21100000e+02    5.12958400e+02
   5669    5691    5726 1       1.21100000e+02    5.12958400e+02
   5670    5669    5691 1       1.21100000e+02    5.12958400e+02
   5670    5672    5673 1       1.20640000e+02    5.08439680e+02
   5670    5672    5688 1       1.20020000e+02    5.32790560e+02
   5671    5670    5672 1       1.19880000e+02    3.75723200e+02
   5672    5673    5674 1       1.14530000e+02    3.58485120e+02
   5672    5673    5675 1       1.16810000e+02    4.91368960e+02
   5672    5673    5683 1       1.24830000e+02    4.77729120e+02
   5672    5688    5675 1       1.20640000e+02    5.08439680e+02
   5672    5688    5689 1       1.20020000e+02    5.32790560e+02
   5673    5672    5688 1       1.20640000e+02    5.08439680e+02
   5673    5675    5676 1       1.14760000e+02    3.49364000e+02
   5673    5675    5677 1       1.22490000e+02    4.75804480e+02
   5673    5675    5688 1       1.16810000e+02    4.91368960e+02
   5673    5683    5681 1       9.60300000e+01    5.40070720e+02
   5673    5683    5684 1       1.12000000e+02    3.56811520e+02
   5673    5683    5685 1       1.03090000e+02    5.20322240e+02
   5674    5673    5675 1       1.14760000e+02    3.49364000e+02
   5674    5673    5683 1       1.13690000e+02    3.54217440e+02
   5675    5673    5683 1       1.22490000e+02    4.75804480e+02
   5675    5677    5678 1       1.12000000e+02    3.56811520e+02
   5675    5677    5679 1       9.60300000e+01    5.40070720e+02
   5675    5677    5685 1       1.03090000e+02    5.20322240e+02
   5675    5688    5689 1       1.20640000e+02    5.08439680e+02
   5676    5675    5677 1       1.13690000e+02    3.54217440e+02
   5676    5675    5688 1       1.14530000e+02    3.58485120e+02
   5677    5675    5688 1       1.24830000e+02    4.77729120e+02
   5677    5679    1916 1       1.24830000e+02    4.77729120e+02
   5677    5679    5680 1       1.13690000e+02    3.54217440e+02
   5677    5679    5681 1       1.22490000e+02    4.75804480e+02
   5677    5685    5683 1       1.03830000e+02    5.17477120e+02
   5677    5685    5686 1       1.11170000e+02    3.56895200e+02
   5677    5685    5687 1       1.11170000e+02    3.56895200e+02
   5678    5677    5685 1       1.11170000e+02    3.56895200e+02
   5679    5677    5678 1       1.12000000e+02    3.56811520e+02
   5679    5681    5682 1       1.14760000e+02    3.49364000e+02
   5681    5679    5680 1       1.14760000e+02    3.49364000e+02
   5681    5683    5684 1       1.12000000e+02    3.56811520e+02
   5683    5681    1917 1       1.24830000e+02    4.77729120e+02
   5683    5681    5679 1       1.22490000e+02    4.75804480e+02
   5683    5681    5682 1       1.13690000e+02    3.54217440e+02
   5683    5685    5686 1       1.11170000e+02    3.56895200e+02
   5683    5685    5687 1       1.11170000e+02    3.56895200e+02
   5684    5683    5685 1       1.11170000e+02    3.56895200e+02
   5685    5677    5679 1       1.03090000e+02    5.20322240e+02
   5685    5683    5681 1       1.03090000e+02    5.20322240e+02
   5686    5685    5687 1       1.07220000e+02    3.00494880e+02
   5688    5689    5690 1       1.19880000e+02    3.75723200e+02
   5691    5692    5693 1       1.20730000e+02    5.29945440e+02
   5691    5726    5725 1       1.20730000e+02    5.29945440e+02
   5691    5726    5727 1       1.19820000e+02    3.74300640e+02
   5692    5691    5726 1       1.18410000e+02    5.33794720e+02
   5692    5693    5694 1       1.19880000e+02    3.75723200e+02
   5692    5693    5695 1       1.20020000e+02    5.32790560e+02
   5693    5695    5696 1       1.20640000e+02    5.08439680e+02
   5693    5695    5725 1       1.20020000e+02    5.32790560e+02
   5694    5693    5695 1       1.19880000e+02    3.75723200e+02
   5695    5696    5697 1       1.14530000e+02    3.58485120e+02
   5695    5696    5698 1       1.16810000e+02    4.91368960e+02
   5695    5696    5720 1       1.24830000e+02    4.77729120e+02
   5695    5725    5698 1       1.20640000e+02    5.08439680e+02
   5695    5725    5726 1       1.20020000e+02    5.32790560e+02
   5696    5695    5725 1       1.20640000e+02    5.08439680e+02
   5696    5698    5699 1       1.14760000e+02    3.49364000e+02
   5696    5698    5700 1       1.22490000e+02    4.75804480e+02
   5696    5698    5725 1       1.16810000e+02    4.91368960e+02
   5696    5720    5718 1       9.60300000e+01    5.40070720e+02
   5696    5720    5721 1       1.12000000e+02    3.56811520e+02
   5696    5720    5722 1       1.03090000e+02    5.20322240e+02
   5697    5696    5698 1       1.14760000e+02    3.49364000e+02
   5697    5696    5720 1       1.13690000e+02    3.54217440e+02
   5698    5696    5720 1       1.22490000e+02    4.75804480e+02
   5698    5700    5701 1       1.12000000e+02    3.56811520e+02
   5698    5700    5702 1       9.60300000e+01    5.40070720e+02
   5698    5700    5722 1       1.03090000e+02    5.20322240e+02
   5698    5725    5726 1       1.20640000e+02    5.08439680e+02
   5699    5698    5700 1       1.13690000e+02    3.54217440e+02
   5699    5698    5725 1       1.14530000e+02    3.58485120e+02
   5700    5698    5725 1       1.24830000e+02    4.77729120e+02
   5700    5702    5703 1       1.13690000e+02    3.54217440e+02
   5700    5702    5704 1       1.24830000e+02    4.77729120e+02
   5700    5702    5718 1       1.22490000e+02    4.75804480e+02
   5700    5722    5720 1       1.03830000e+02    5.17477120e+02
   5700    5722    5723 1       1.11170000e+02    3.56895200e+02
   5700    5722    5724 1       1.11170000e+02    3.56895200e+02
   5701    5700    5702 1       1.12000000e+02    3.56811520e+02
   5701    5700    5722 1       1.11170000e+02    3.56895200e+02
   5702    5700    5722 1       1.03090000e+02    5.20322240e+02
   5702    5704    5705 1       1.20640000e+02    5.08439680e+02
   5702    5704    5713 1       1.20640000e+02    5.08439680e+02
   5702    5718    5705 1       1.16810000e+02    4.91368960e+02
   5702    5718    5719 1       1.14760000e+02    3.49364000e+02
   5702    5718    5720 1       1.22490000e+02    4.75804480e+02
   5703    5702    5704 1       1.14530000e+02    3.58485120e+02
   5703    5702    5718 1       1.14760000e+02    3.49364000e+02
   5704    5702    5718 1       1.16810000e+02    4.91368960e+02
   5704    5705    5706 1       1.20020000e+02    5.32790560e+02
   5704    5705    5718 1       1.20640000e+02    5.08439680e+02
   5704    5713    5712 1       1.20020000e+02    5.32790560e+02
   5704    5713    5714 1       1.20830000e+02    5.08272320e+02
   5705    5704    5713 1       1.20020000e+02    5.32790560e+02
   5705    5706    5707 1       1.20830000e+02    5.08272320e+02
   5705    5706    5711 1       1.20020000e+02    5.32790560e+02
   5705    5718    5719 1       1.14530000e+02    3.58485120e+02
   5705    5718    5720 1       1.24830000e+02    4.77729120e+02
   5706    5705    5718 1       1.20640000e+02    5.08439680e+02
   5706    5707    5708 1       1.10630000e+02    3.64928480e+02
   5706    5707    5709 1       1.10630000e+02    3.64928480e+02
   5706    5707    5710 1       1.10630000e+02    3.64928480e+02
   5706    5711      90 1       1.20640000e+02    5.08439680e+02
   5706    5711    5712 1       1.20020000e+02    5.32790560e+02
   5707    5706    5711 1       1.20830000e+02    5.08272320e+02
   5708    5707    5709 1       1.07730000e+02    2.99574400e+02
   5708    5707    5710 1       1.07730000e+02    2.99574400e+02
   5709    5707    5710 1       1.07730000e+02    2.99574400e+02
   5711      90      91 1       1.14530000e+02    3.58485120e+02
   5711      90      92 1       1.16810000e+02    4.91368960e+02
   5711    5712      92 1       1.20640000e+02    5.08439680e+02
   5711    5712    5713 1       1.20020000e+02    5.32790560e+02
   5712      92      90 1       1.16810000e+02    4.91368960e+02
   5712      92      93 1       1.14530000e+02    3.58485120e+02
   5712    5711      90 1       1.20640000e+02    5.08439680e+02
   5713    5712      92 1       1.20640000e+02    5.08439680e+02
   5713    5714    5715 1       1.10630000e+02    3.64928480e+02
   5713    5714    5716 1       1.10630000e+02    3.64928480e+02
   5713    5714    5717 1       1.10630000e+02    3.64928480e+02
   5714    5713    5712 1       1.20830000e+02    5.08272320e+02
   5715    5714    5716 1       1.07730000e+02    2.99574400e+02
   5715    5714    5717 1       1.07730000e+02    2.99574400e+02
   5716    5714    5717 1       1.07730000e+02    2.99574400e+02
   5718    5720    5721 1       1.12000000e+02    3.56811520e+02
   5718    5720    5722 1       1.03090000e+02    5.20322240e+02
   5719    5718    5720 1       1.13690000e+02    3.54217440e+02
   5720    5722    5723 1       1.11170000e+02    3.56895200e+02
   5720    5722    5724 1       1.11170000e+02    3.56895200e+02
   5721    5720    5722 1       1.11170000e+02    3.56895200e+02
   5723    5722    5724 1       1.07220000e+02    3.00494880e+02
   5725    5726    5727 1       1.19880000e+02    3.75723200e+02
   5728    5732    5733 1       1.10280000e+02    5.05761920e+02
   5728    5732    5737 1       1.13070000e+02    5.03000480e+02
   5728    5732    5761 1       1.13070000e+02    5.03000480e+02
   5729    5728    5730 1       1.07730000e+02    2.99574400e+02
   5729    5728    5731 1       1.07730000e+02    2.99574400e+02
   5729    5728    5732 1       1.10530000e+02    3.60326080e+02
   5730    5728    5731 1       1.07730000e+02    2.99574400e+02
   5730    5728    5732 1       1.10530000e+02    3.60326080e+02
   5731    5728    5732 1       1.10530000e+02    3.60326080e+02
   5732    5733    5734 1       1.10530000e+02    3.60326080e+02
   5732    5733    5735 1       1.10530000e+02    3.60326080e+02
   5732    5733    5736 1       1.10530000e+02    3.60326080e+02
   5732    5737    5738 1       1.10210000e+02    5.31033280e+02
   5732    5737    5758 1       1.21870000e+02    5.06012960e+02
   5732    5761    5760 1       1.10210000e+02    5.31033280e+02
   5732    5761    5762 1       1.21870000e+02    5.06012960e+02
   5733    5732    5737 1       1.13070000e+02    5.03000480e+02
   5733    5732    5761 1       1.13070000e+02    5.03000480e+02
   5734    5733    5735 1       1.07730000e+02    2.99574400e+02
   5734    5733    5736 1       1.07730000e+02    2.99574400e+02
   5735    5733    5736 1       1.07730000e+02    2.99574400e+02
   5737    5732    5761 1       1.12520000e+02    5.08021280e+02
   5737    5738    5739 1       1.18410000e+02    5.33794720e+02
   5737    5738    5760 1       1.21100000e+02    5.12958400e+02
   5737    5758    5757 1       1.20020000e+02    5.32790560e+02
   5737    5758    5759 1       1.19880000e+02    3.75723200e+02
   5738    5737    5758 1       1.20730000e+02    5.29945440e+02
   5738    5739    5740 1       1.19820000e+02    3.74300640e+02
   5738    5739    5741 1       1.20730000e+02    5.29945440e+02
   5738    5760    5761 1       1.21100000e+02    5.12958400e+02
   5738    5760    5795 1       1.21100000e+02    5.12958400e+02
   5739    5738    5760 1       1.21100000e+02    5.12958400e+02
   5739    5741    5742 1       1.20640000e+02    5.08439680e+02
   5739    5741    5757 1       1.20020000e+02    5.32790560e+02
   5740    5739    5741 1       1.19880000e+02    3.75723200e+02
   5741    5742    5743 1       1.14530000e+02    3.58485120e+02
   5741    5742    5744 1       1.16810000e+02    4.91368960e+02
   5741    5742    5752 1       1.24830000e+02    4.77729120e+02
   5741    5757    5744 1       1.20640000e+02    5.08439680e+02
   5741    5757    5758 1       1.20020000e+02    5.32790560e+02
   5742    5741    5757 1       1.20640000e+02    5.08439680e+02
   5742    5744    5745 1       1.14760000e+02    3.49364000e+02
   5742    5744    5746 1       1.22490000e+02    4.75804480e+02
   5742    5744    5757 1       1.16810000e+02    4.91368960e+02
   5742    5752    5750 1       9.60300000e+01    5.40070720e+02
   5742    5752    5753 1       1.12000000e+02    3.56811520e+02
   5742    5752    5754 1       1.03090000e+02    5.20322240e+02
   5743    5742    5744 1       1.14760000e+02    3.49364000e+02
   5743    5742    5752 1       1.13690000e+02    3.54217440e+02
   5744    5742    5752 1       1.22490000e+02    4.75804480e+02
   5744    5746    5747 1       1.12000000e+02    3.56811520e+02
   5744    5746    5748 1       9.60300000e+01    5.40070720e+02
   5744    5746    5754 1       1.03090000e+02    5.20322240e+02
   5744    5757    5758 1       1.20640000e+02    5.08439680e+02
   5745    5744    5746 1       1.13690000e+02    3.54217440e+02
   5745    5744    5757 1       1.14530000e+02    3.58485120e+02
   5746    5744    5757 1       1.24830000e+02    4.77729120e+02
   5746    5748    3296 1       1.24830000e+02    4.77729120e+02
   5746    5748    5749 1       1.13690000e+02    3.54217440e+02
   5746    5748    5750 1       1.22490000e+02    4.75804480e+02
   5746    5754    5752 1       1.03830000e+02    5.17477120e+02
   5746    5754    5755 1       1.11170000e+02    3.56895200e+02
   5746    5754    5756 1       1.11170000e+02    3.56895200e+02
   5747    5746    5754 1       1.11170000e+02    3.56895200e+02
   5748    5746    5747 1       1.12000000e+02    3.56811520e+02
   5748    5750    5751 1       1.14760000e+02    3.49364000e+02
   5750    5748    5749 1       1.14760000e+02    3.49364000e+02
   5750    5752    5753 1       1.12000000e+02    3.56811520e+02
   5752    5750    3297 1       1.24830000e+02    4.77729120e+02
   5752    5750    5748 1       1.22490000e+02    4.75804480e+02
   5752    5750    5751 1       1.13690000e+02    3.54217440e+02
   5752    5754    5755 1       1.11170000e+02    3.56895200e+02
   5752    5754    5756 1       1.11170000e+02    3.56895200e+02
   5753    5752    5754 1       1.11170000e+02    3.56895200e+02
   5754    5746    5748 1       1.03090000e+02    5.20322240e+02
   5754    5752    5750 1       1.03090000e+02    5.20322240e+02
   5755    5754    5756 1       1.07220000e+02    3.00494880e+02
   5757    5758    5759 1       1.19880000e+02    3.75723200e+02
   5760    5761    5762 1       1.20730000e+02    5.29945440e+02
   5760    5795    5794 1       1.20730000e+02    5.29945440e+02
   5760    5795    5796 1       1.19820000e+02    3.74300640e+02
   5761    5760    5795 1       1.18410000e+02    5.33794720e+02
   5761    5762    5763 1       1.19880000e+02    3.75723200e+02
   5761    5762    5764 1       1.20020000e+02    5.32790560e+02
   5762    5764    5765 1       1.20640000e+02    5.08439680e+02
   5762    5764    5794 1       1.20020000e+02    5.32790560e+02
   5763    5762    5764 1       1.19880000e+02    3.75723200e+02
   5764    5765    5766 1       1.14530000e+02    3.58485120e+02
   5764    5765    5767 1       1.16810000e+02    4.91368960e+02
   5764    5765    5789 1       1.24830000e+02    4.77729120e+02
   5764    5794    5767 1       1.20640000e+02    5.08439680e+02
   5764    5794    5795 1       1.20020000e+02    5.32790560e+02
   5765    5764    5794 1       1.20640000e+02    5.08439680e+02
   5765    5767    5768 1       1.14760000e+02    3.49364000e+02
   5765    5767    5769 1       1.22490000e+02    4.75804480e+02
   5765    5767    5794 1       1.16810000e+02    4.91368960e+02
   5765    5789    5787 1       9.60300000e+01    5.40070720e+02
   5765    5789    5790 1       1.12000000e+02    3.56811520e+02
   5765    5789    5791 1       1.03090000e+02    5.20322240e+02
   5766    5765    5767 1       1.14760000e+02    3.49364000e+02
   5766    5765    5789 1       1.13690000e+02    3.54217440e+02
   5767    5765    5789 1       1.22490000e+02    4.75804480e+02
   5767    5769    5770 1       1.12000000e+02    3.56811520e+02
   5767    5769    5771 1       9.60300000e+01    5.40070720e+02
   5767    5769    5791 1       1.03090000e+02    5.20322240e+02
   5767    5794    5795 1       1.20640000e+02    5.08439680e+02
   5768    5767    5769 1       1.13690000e+02    3.54217440e+02
   5768    5767    5794 1       1.14530000e+02    3.58485120e+02
   5769    5767    5794 1       1.24830000e+02    4.77729120e+02
   5769    5771    5772 1       1.13690000e+02    3.54217440e+02
   5769    5771    5773 1       1.24830000e+02    4.77729120e+02
   5769    5771    5787 1       1.22490000e+02    4.75804480e+02
   5769    5791    5789 1       1.03830000e+02    5.17477120e+02
   5769    5791    5792 1       1.11170000e+02    3.56895200e+02
   5769    5791    5793 1       1.11170000e+02    3.56895200e+02
   5770    5769    5771 1       1.12000000e+02    3.56811520e+02
   5770    5769    5791 1       1.11170000e+02    3.56895200e+02
   5771    5769    5791 1       1.03090000e+02    5.20322240e+02
   5771    5773    5774 1       1.20640000e+02    5.08439680e+02
   5771    5773    5782 1       1.20640000e+02    5.08439680e+02
   5771    5787    5774 1       1.16810000e+02    4.91368960e+02
   5771    5787    5788 1       1.14760000e+02    3.49364000e+02
   5771    5787    5789 1       1.22490000e+02    4.75804480e+02
   5772    5771    5773 1       1.14530000e+02    3.58485120e+02
   5772    5771    5787 1       1.14760000e+02    3.49364000e+02
   5773    5771    5787 1       1.16810000e+02    4.91368960e+02
   5773    5774    5775 1       1.20020000e+02    5.32790560e+02
   5773    5774    5787 1       1.20640000e+02    5.08439680e+02
   5773    5782    5781 1       1.20020000e+02    5.32790560e+02
   5773    5782    5783 1       1.20830000e+02    5.08272320e+02
   5774    5773    5782 1       1.20020000e+02    5.32790560e+02
   5774    5775    5776 1       1.20830000e+02    5.08272320e+02
   5774    5775    5780 1       1.20020000e+02    5.32790560e+02
   5774    5787    5788 1       1.14530000e+02    3.58485120e+02
   5774    5787    5789 1       1.24830000e+02    4.77729120e+02
   5775    5774    5787 1       1.20640000e+02    5.08439680e+02
   5775    5776    5777 1       1.10630000e+02    3.64928480e+02
   5775    5776    5778 1       1.10630000e+02    3.64928480e+02
   5775    5776    5779 1       1.10630000e+02    3.64928480e+02
   5775    5780     573 1       1.20640000e+02    5.08439680e+02
   5775    5780    5781 1       1.20020000e+02    5.32790560e+02
   5776    5775    5780 1       1.20830000e+02    5.08272320e+02
   5777    5776    5778 1       1.07730000e+02    2.99574400e+02
   5777    5776    5779 1       1.07730000e+02    2.99574400e+02
   5778    5776    5779 1       1.07730000e+02    2.99574400e+02
   5780     573     574 1       1.14530000e+02    3.58485120e+02
   5780     573     575 1       1.16810000e+02    4.91368960e+02
   5780    5781     575 1       1.20640000e+02    5.08439680e+02
   5780    5781    5782 1       1.20020000e+02    5.32790560e+02
   5781     575     573 1       1.16810000e+02    4.91368960e+02
   5781     575     576 1       1.14530000e+02    3.58485120e+02
   5781    5780     573 1       1.20640000e+02    5.08439680e+02
   5782    5781     575 1       1.20640000e+02    5.08439680e+02
   5782    5783    5784 1       1.10630000e+02    3.64928480e+02
   5782    5783    5785 1       1.10630000e+02    3.64928480e+02
   5782    5783    5786 1       1.10630000e+02    3.64928480e+02
   5783    5782    5781 1       1.20830000e+02    5.08272320e+02
   5784    5783    5785 1       1.07730000e+02    2.99574400e+02
   5784    5783    5786 1       1.07730000e+02    2.99574400e+02
   5785    5783    5786 1       1.07730000e+02    2.99574400e+02
   5787    5789    5790 1       1.12000000e+02    3.56811520e+02
   5787    5789    5791 1       1.03090000e+02    5.20322240e+02
   5788    5787    5789 1       1.13690000e+02    3.54217440e+02
   5789    5791    5792 1       1.11170000e+02    3.56895200e+02
   5789    5791    5793 1       1.11170000e+02    3.56895200e+02
   5790    5789    5791 1       1.11170000e+02    3.56895200e+02
   5792    5791    5793 1       1.07220000e+02    3.00494880e+02
   5794    5795    5796 1       1.19880000e+02    3.75723200e+02
   5797    5801    5802 1       1.10280000e+02    5.05761920e+02
   5797    5801    5806 1       1.13070000e+02    5.03000480e+02
   5797    5801    5830 1       1.13070000e+02    5.03000480e+02
   5798    5797    5799 1       1.07730000e+02    2.99574400e+02
   5798    5797    5800 1       1.07730000e+02    2.99574400e+02
   5798    5797    5801 1       1.10530000e+02    3.60326080e+02
   5799    5797    5800 1       1.07730000e+02    2.99574400e+02
   5799    5797    5801 1       1.10530000e+02    3.60326080e+02
   5800    5797    5801 1       1.10530000e+02    3.60326080e+02
   5801    5802    5803 1       1.10530000e+02    3.60326080e+02
   5801    5802    5804 1       1.10530000e+02    3.60326080e+02
   5801    5802    5805 1       1.10530000e+02    3.60326080e+02
   5801    5806    5807 1       1.10210000e+02    5.31033280e+02
   5801    5806    5827 1       1.21870000e+02    5.06012960e+02
   5801    5830    5829 1       1.10210000e+02    5.31033280e+02
   5801    5830    5831 1       1.21870000e+02    5.06012960e+02
   5802    5801    5806 1       1.13070000e+02    5.03000480e+02
   5802    5801    5830 1       1.13070000e+02    5.03000480e+02
   5803    5802    5804 1       1.07730000e+02    2.99574400e+02
   5803    5802    5805 1       1.07730000e+02    2.99574400e+02
   5804    5802    5805 1       1.07730000e+02    2.99574400e+02
   5806    5801    5830 1       1.12520000e+02    5.08021280e+02
   5806    5807    5808 1       1.18410000e+02    5.33794720e+02
   5806    5807    5829 1       1.21100000e+02    5.12958400e+02
   5806    5827    5826 1       1.20020000e+02    5.32790560e+02
   5806    5827    5828 1       1.19880000e+02    3.75723200e+02
   5807    5806    5827 1       1.20730000e+02    5.29945440e+02
   5807    5808    5809 1       1.19820000e+02    3.74300640e+02
   5807    5808    5810 1       1.20730000e+02    5.29945440e+02
   5807    5829    5830 1       1.21100000e+02    5.12958400e+02
   5807    5829    5864 1       1.21100000e+02    5.12958400e+02
   5808    5807    5829 1       1.21100000e+02    5.12958400e+02
   5808    5810    5811 1       1.20640000e+02    5.08439680e+02
   5808    5810    5826 1       1.20020000e+02    5.32790560e+02
   5809    5808    5810 1       1.19880000e+02    3.75723200e+02
   5810    5811    5812 1       1.14530000e+02    3.58485120e+02
   5810    5811    5813 1       1.16810000e+02    4.91368960e+02
   5810    5811    5821 1       1.24830000e+02    4.77729120e+02
   5810    5826    5813 1       1.20640000e+02    5.08439680e+02
   5810    5826    5827 1       1.20020000e+02    5.32790560e+02
   5811    5810    5826 1       1.20640000e+02    5.08439680e+02
   5811    5813    5814 1       1.14760000e+02    3.49364000e+02
   5811    5813    5815 1       1.22490000e+02    4.75804480e+02
   5811    5813    5826 1       1.16810000e+02    4.91368960e+02
   5811    5821    5819 1       9.60300000e+01    5.40070720e+02
   5811    5821    5822 1       1.12000000e+02    3.56811520e+02
   5811    5821    5823 1       1.03090000e+02    5.20322240e+02
   5812    5811    5813 1       1.14760000e+02    3.49364000e+02
   5812    5811    5821 1       1.13690000e+02    3.54217440e+02
   5813    5811    5821 1       1.22490000e+02    4.75804480e+02
   5813    5815    5816 1       1.12000000e+02    3.56811520e+02
   5813    5815    5817 1       9.60300000e+01    5.40070720e+02
   5813    5815    5823 1       1.03090000e+02    5.20322240e+02
   5813    5826    5827 1       1.20640000e+02    5.08439680e+02
   5814    5813    5815 1       1.13690000e+02    3.54217440e+02
   5814    5813    5826 1       1.14530000e+02    3.58485120e+02
   5815    5813    5826 1       1.24830000e+02    4.77729120e+02
   5815    5817    1295 1       1.24830000e+02    4.77729120e+02
   5815    5817    5818 1       1.13690000e+02    3.54217440e+02
   5815    5817    5819 1       1.22490000e+02    4.75804480e+02
   5815    5823    5821 1       1.03830000e+02    5.17477120e+02
   5815    5823    5824 1       1.11170000e+02    3.56895200e+02
   5815    5823    5825 1       1.11170000e+02    3.56895200e+02
   5816    5815    5823 1       1.11170000e+02    3.56895200e+02
   5817    5815    5816 1       1.12000000e+02    3.56811520e+02
   5817    5819    5820 1       1.14760000e+02    3.49364000e+02
   5819    5817    5818 1       1.14760000e+02    3.49364000e+02
   5819    5821    5822 1       1.12000000e+02    3.56811520e+02
   5821    5819    1296 1       1.24830000e+02    4.77729120e+02
   5821    5819    5817 1       1.22490000e+02    4.75804480e+02
   5821    5819    5820 1       1.13690000e+02    3.54217440e+02
   5821    5823    5824 1       1.11170000e+02    3.56895200e+02
   5821    5823    5825 1       1.11170000e+02    3.56895200e+02
   5822    5821    5823 1       1.11170000e+02    3.56895200e+02
   5823    5815    5817 1       1.03090000e+02    5.20322240e+02
   5823    5821    5819 1       1.03090000e+02    5.20322240e+02
   5824    5823    5825 1       1.07220000e+02    3.00494880e+02
   5826    5827    5828 1       1.19880000e+02    3.75723200e+02
   5829    5830    5831 1       1.20730000e+02    5.29945440e+02
   5829    5864    5863 1       1.20730000e+02    5.29945440e+02
   5829    5864    5865 1       1.19820000e+02    3.74300640e+02
   5830    5829    5864 1       1.18410000e+02    5.33794720e+02
   5830    5831    5832 1       1.19880000e+02    3.75723200e+02
   5830    5831    5833 1       1.20020000e+02    5.32790560e+02
   5831    5833    5834 1       1.20640000e+02    5.08439680e+02
   5831    5833    5863 1       1.20020000e+02    5.32790560e+02
   5832    5831    5833 1       1.19880000e+02    3.75723200e+02
   5833    5834    5835 1       1.14530000e+02    3.58485120e+02
   5833    5834    5836 1       1.16810000e+02    4.91368960e+02
   5833    5834    5858 1       1.24830000e+02    4.77729120e+02
   5833    5863    5836 1       1.20640000e+02    5.08439680e+02
   5833    5863    5864 1       1.20020000e+02    5.32790560e+02
   5834    5833    5863 1       1.20640000e+02    5.08439680e+02
   5834    5836    5837 1       1.14760000e+02    3.49364000e+02
   5834    5836    5838 1       1.22490000e+02    4.75804480e+02
   5834    5836    5863 1       1.16810000e+02    4.91368960e+02
   5834    5858    5856 1       9.60300000e+01    5.40070720e+02
   5834    5858    5859 1       1.12000000e+02    3.56811520e+02
   5834    5858    5860 1       1.03090000e+02    5.20322240e+02
   5835    5834    5836 1       1.14760000e+02    3.49364000e+02
   5835    5834    5858 1       1.13690000e+02    3.54217440e+02
   5836    5834    5858 1       1.22490000e+02    4.75804480e+02
   5836    5838    5839 1       1.12000000e+02    3.56811520e+02
   5836    5838    5840 1       9.60300000e+01    5.40070720e+02
   5836    5838    5860 1       1.03090000e+02    5.20322240e+02
   5836    5863    5864 1       1.20640000e+02    5.08439680e+02
   5837    5836    5838 1       1.13690000e+02    3.54217440e+02
   5837    5836    5863 1       1.14530000e+02    3.58485120e+02
   5838    5836    5863 1       1.24830000e+02    4.77729120e+02
   5838    5840    5841 1       1.13690000e+02    3.54217440e+02
   5838    5840    5842 1       1.24830000e+02    4.77729120e+02
   5838    5840    5856 1       1.22490000e+02    4.75804480e+02
   5838    5860    5858 1       1.03830000e+02    5.17477120e+02
   5838    5860    5861 1       1.11170000e+02    3.56895200e+02
   5838    5860    5862 1       1.11170000e+02    3.56895200e+02
   5839    5838    5840 1       1.12000000e+02    3.56811520e+02
   5839    5838    5860 1       1.11170000e+02    3.56895200e+02
   5840    5838    5860 1       1.03090000e+02    5.20322240e+02
   5840    5842    5843 1       1.20640000e+02    5.08439680e+02
   5840    5842    5851 1       1.20640000e+02    5.08439680e+02
   5840    5856    5843 1       1.16810000e+02    4.91368960e+02
   5840    5856    5857 1       1.14760000e+02    3.49364000e+02
   5840    5856    5858 1       1.22490000e+02    4.75804480e+02
   5841    5840    5842 1       1.14530000e+02    3.58485120e+02
   5841    5840    5856 1       1.14760000e+02    3.49364000e+02
   5842    5840    5856 1       1.16810000e+02    4.91368960e+02
   5842    5843    5844 1       1.20020000e+02    5.32790560e+02
   5842    5843    5856 1       1.20640000e+02    5.08439680e+02
   5842    5851    5850 1       1.20020000e+02    5.32790560e+02
   5842    5851    5852 1       1.20830000e+02    5.08272320e+02
   5843    5842    5851 1       1.20020000e+02    5.32790560e+02
   5843    5844    5845 1       1.20830000e+02    5.08272320e+02
   5843    5844    5849 1       1.20020000e+02    5.32790560e+02
   5843    5856    5857 1       1.14530000e+02    3.58485120e+02
   5843    5856    5858 1       1.24830000e+02    4.77729120e+02
   5844    5843    5856 1       1.20640000e+02    5.08439680e+02
   5844    5845    5846 1       1.10630000e+02    3.64928480e+02
   5844    5845    5847 1       1.10630000e+02    3.64928480e+02
   5844    5845    5848 1       1.10630000e+02    3.64928480e+02
   5844    5849    3818 1       1.20640000e+02    5.08439680e+02
   5844    5849    5850 1       1.20020000e+02    5.32790560e+02
   5845    5844    5849 1       1.20830000e+02    5.08272320e+02
   5846    5845    5847 1       1.07730000e+02    2.99574400e+02
   5846    5845    5848 1       1.07730000e+02    2.99574400e+02
   5847    5845    5848 1       1.07730000e+02    2.99574400e+02
   5849    3818    3816 1       1.16810000e+02    4.91368960e+02
   5849    3818    3819 1       1.14530000e+02    3.58485120e+02
   5849    5850    3816 1       1.20640000e+02    5.08439680e+02
   5849    5850    5851 1       1.20020000e+02    5.32790560e+02
   5850    3816    3817 1       1.14530000e+02    3.58485120e+02
   5850    3816    3818 1       1.16810000e+02    4.91368960e+02
   5850    5849    3818 1       1.20640000e+02    5.08439680e+02
   5851    5850    3816 1       1.20640000e+02    5.08439680e+02
   5851    5852    5853 1       1.10630000e+02    3.64928480e+02
   5851    5852    5854 1       1.10630000e+02    3.64928480e+02
   5851    5852    5855 1       1.10630000e+02    3.64928480e+02
   5852    5851    5850 1       1.20830000e+02    5.08272320e+02
   5853    5852    5854 1       1.07730000e+02    2.99574400e+02
   5853    5852    5855 1       1.07730000e+02    2.99574400e+02
   5854    5852    5855 1       1.07730000e+02    2.99574400e+02
   5856    5858    5859 1       1.12000000e+02    3.56811520e+02
   5856    5858    5860 1       1.03090000e+02    5.20322240e+02
   5857    5856    5858 1       1.13690000e+02    3.54217440e+02
   5858    5860    5861 1       1.11170000e+02    3.56895200e+02
   5858    5860    5862 1       1.11170000e+02    3.56895200e+02
   5859    5858    5860 1       1.11170000e+02    3.56895200e+02
   5861    5860    5862 1       1.07220000e+02    3.00494880e+02
   5863    5864    5865 1       1.19880000e+02    3.75723200e+02
   5866    5870    5871 1       1.10280000e+02    5.05761920e+02
   5866    5870    5875 1       1.13070000e+02    5.03000480e+02
   5866    5870    5899 1       1.13070000e+02    5.03000480e+02
   5867    5866    5868 1       1.07730000e+02    2.99574400e+02
   5867    5866    5869 1       1.07730000e+02    2.99574400e+02
   5867    5866    5870 1       1.10530000e+02    3.60326080e+02
   5868    5866    5869 1       1.07730000e+02    2.99574400e+02
   5868    5866    5870 1       1.10530000e+02    3.60326080e+02
   5869    5866    5870 1       1.10530000e+02    3.60326080e+02
   5870    5871    5872 1       1.10530000e+02    3.60326080e+02
   5870    5871    5873 1       1.10530000e+02    3.60326080e+02
   5870    5871    5874 1       1.10530000e+02    3.60326080e+02
   5870    5875    5876 1       1.10210000e+02    5.31033280e+02
   5870    5875    5896 1       1.21870000e+02    5.06012960e+02
   5870    5899    5898 1       1.10210000e+02    5.31033280e+02
   5870    5899    5900 1       1.21870000e+02    5.06012960e+02
   5871    5870    5875 1       1.13070000e+02    5.03000480e+02
   5871    5870    5899 1       1.13070000e+02    5.03000480e+02
   5872    5871    5873 1       1.07730000e+02    2.99574400e+02
   5872    5871    5874 1       1.07730000e+02    2.99574400e+02
   5873    5871    5874 1       1.07730000e+02    2.99574400e+02
   5875    5870    5899 1       1.12520000e+02    5.08021280e+02
   5875    5876    5877 1       1.18410000e+02    5.33794720e+02
   5875    5876    5898 1       1.21100000e+02    5.12958400e+02
   5875    5896    5895 1       1.20020000e+02    5.32790560e+02
   5875    5896    5897 1       1.19880000e+02    3.75723200e+02
   5876    5875    5896 1       1.20730000e+02    5.29945440e+02
   5876    5877    5878 1       1.19820000e+02    3.74300640e+02
   5876    5877    5879 1       1.20730000e+02    5.29945440e+02
   5876    5898    5899 1       1.21100000e+02    5.12958400e+02
   5876    5898    5933 1       1.21100000e+02    5.12958400e+02
   5877    5876    5898 1       1.21100000e+02    5.12958400e+02
   5877    5879    5880 1       1.20640000e+02    5.08439680e+02
   5877    5879    5895 1       1.20020000e+02    5.32790560e+02
   5878    5877    5879 1       1.19880000e+02    3.75723200e+02
   5879    5880    5881 1       1.14530000e+02    3.58485120e+02
   5879    5880    5882 1       1.16810000e+02    4.91368960e+02
   5879    5880    5890 1       1.24830000e+02    4.77729120e+02
   5879    5895    5882 1       1.20640000e+02    5.08439680e+02
   5879    5895    5896 1       1.20020000e+02    5.32790560e+02
   5880    5879    5895 1       1.20640000e+02    5.08439680e+02
   5880    5882    5883 1       1.14760000e+02    3.49364000e+02
   5880    5882    5884 1       1.22490000e+02    4.75804480e+02
   5880    5882    5895 1       1.16810000e+02    4.91368960e+02
   5880    5890    5888 1       9.60300000e+01    5.40070720e+02
   5880    5890    5891 1       1.12000000e+02    3.56811520e+02
   5880    5890    5892 1       1.03090000e+02    5.20322240e+02
   5881    5880    5882 1       1.14760000e+02    3.49364000e+02
   5881    5880    5890 1       1.13690000e+02    3.54217440e+02
   5882    5880    5890 1       1.22490000e+02    4.75804480e+02
   5882    5884    5885 1       1.12000000e+02    3.56811520e+02
   5882    5884    5886 1       9.60300000e+01    5.40070720e+02
   5882    5884    5892 1       1.03090000e+02    5.20322240e+02
   5882    5895    5896 1       1.20640000e+02    5.08439680e+02
   5883    5882    5884 1       1.13690000e+02    3.54217440e+02
   5883    5882    5895 1       1.14530000e+02    3.58485120e+02
   5884    5882    5895 1       1.24830000e+02    4.77729120e+02
   5884    5886    4056 1       1.24830000e+02    4.77729120e+02
   5884    5886    5887 1       1.13690000e+02    3.54217440e+02
   5884    5886    5888 1       1.22490000e+02    4.75804480e+02
   5884    5892    5890 1       1.03830000e+02    5.17477120e+02
   5884    5892    5893 1       1.11170000e+02    3.56895200e+02
   5884    5892    5894 1       1.11170000e+02    3.56895200e+02
   5885    5884    5892 1       1.11170000e+02    3.56895200e+02
   5886    5884    5885 1       1.12000000e+02    3.56811520e+02
   5886    5888    5889 1       1.14760000e+02    3.49364000e+02
   5888    5886    5887 1       1.14760000e+02    3.49364000e+02
   5888    5890    5891 1       1.12000000e+02    3.56811520e+02
   5890    5888    4055 1       1.24830000e+02    4.77729120e+02
   5890    5888    5886 1       1.22490000e+02    4.75804480e+02
   5890    5888    5889 1       1.13690000e+02    3.54217440e+02
   5890    5892    5893 1       1.11170000e+02    3.56895200e+02
   5890    5892    5894 1       1.11170000e+02    3.56895200e+02
   5891    5890    5892 1       1.11170000e+02    3.56895200e+02
   5892    5884    5886 1       1.03090000e+02    5.20322240e+02
   5892    5890    5888 1       1.03090000e+02    5.20322240e+02
   5893    5892    5894 1       1.07220000e+02    3.00494880e+02
   5895    5896    5897 1       1.19880000e+02    3.75723200e+02
   5898    5899    5900 1       1.20730000e+02    5.29945440e+02
   5898    5933    5932 1       1.20730000e+02    5.29945440e+02
   5898    5933    5934 1       1.19820000e+02    3.74300640e+02
   5899    5898    5933 1       1.18410000e+02    5.33794720e+02
   5899    5900    5901 1       1.19880000e+02    3.75723200e+02
   5899    5900    5902 1       1.20020000e+02    5.32790560e+02
   5900    5902    5903 1       1.20640000e+02    5.08439680e+02
   5900    5902    5932 1       1.20020000e+02    5.32790560e+02
   5901    5900    5902 1       1.19880000e+02    3.75723200e+02
   5902    5903    5904 1       1.14530000e+02    3.58485120e+02
   5902    5903    5905 1       1.16810000e+02    4.91368960e+02
   5902    5903    5927 1       1.24830000e+02    4.77729120e+02
   5902    5932    5905 1       1.20640000e+02    5.08439680e+02
   5902    5932    5933 1       1.20020000e+02    5.32790560e+02
   5903    5902    5932 1       1.20640000e+02    5.08439680e+02
   5903    5905    5906 1       1.14760000e+02    3.49364000e+02
   5903    5905    5907 1       1.22490000e+02    4.75804480e+02
   5903    5905    5932 1       1.16810000e+02    4.91368960e+02
   5903    5927    5925 1       9.60300000e+01    5.40070720e+02
   5903    5927    5928 1       1.12000000e+02    3.56811520e+02
   5903    5927    5929 1       1.03090000e+02    5.20322240e+02
   5904    5903    5905 1       1.14760000e+02    3.49364000e+02
   5904    5903    5927 1       1.13690000e+02    3.54217440e+02
   5905    5903    5927 1       1.22490000e+02    4.75804480e+02
   5905    5907    5908 1       1.12000000e+02    3.56811520e+02
   5905    5907    5909 1       9.60300000e+01    5.40070720e+02
   5905    5907    5929 1       1.03090000e+02    5.20322240e+02
   5905    5932    5933 1       1.20640000e+02    5.08439680e+02
   5906    5905    5907 1       1.13690000e+02    3.54217440e+02
   5906    5905    5932 1       1.14530000e+02    3.58485120e+02
   5907    5905    5932 1       1.24830000e+02    4.77729120e+02
   5907    5909    5910 1       1.13690000e+02    3.54217440e+02
   5907    5909    5911 1       1.24830000e+02    4.77729120e+02
   5907    5909    5925 1       1.22490000e+02    4.75804480e+02
   5907    5929    5927 1       1.03830000e+02    5.17477120e+02
   5907    5929    5930 1       1.11170000e+02    3.56895200e+02
   5907    5929    5931 1       1.11170000e+02    3.56895200e+02
   5908    5907    5909 1       1.12000000e+02    3.56811520e+02
   5908    5907    5929 1       1.11170000e+02    3.56895200e+02
   5909    5907    5929 1       1.03090000e+02    5.20322240e+02
   5909    5911    5912 1       1.20640000e+02    5.08439680e+02
   5909    5911    5920 1       1.20640000e+02    5.08439680e+02
   5909    5925    5912 1       1.16810000e+02    4.91368960e+02
   5909    5925    5926 1       1.14760000e+02    3.49364000e+02
   5909    5925    5927 1       1.22490000e+02    4.75804480e+02
   5910    5909    5911 1       1.14530000e+02    3.58485120e+02
   5910    5909    5925 1       1.14760000e+02    3.49364000e+02
   5911    5909    5925 1       1.16810000e+02    4.91368960e+02
   5911    5912    5913 1       1.20020000e+02    5.32790560e+02
   5911    5912    5925 1       1.20640000e+02    5.08439680e+02
   5911    5920    5919 1       1.20020000e+02    5.32790560e+02
   5911    5920    5921 1       1.20830000e+02    5.08272320e+02
   5912    5911    5920 1       1.20020000e+02    5.32790560e+02
   5912    5913    5914 1       1.20830000e+02    5.08272320e+02
   5912    5913    5918 1       1.20020000e+02    5.32790560e+02
   5912    5925    5926 1       1.14530000e+02    3.58485120e+02
   5912    5925    5927 1       1.24830000e+02    4.77729120e+02
   5913    5912    5925 1       1.20640000e+02    5.08439680e+02
   5913    5914    5915 1       1.10630000e+02    3.64928480e+02
   5913    5914    5916 1       1.10630000e+02    3.64928480e+02
   5913    5914    5917 1       1.10630000e+02    3.64928480e+02
   5913    5918    5919 1       1.20020000e+02    5.32790560e+02
   5913    5918    5955 1       1.20640000e+02    5.08439680e+02
   5914    5913    5918 1       1.20830000e+02    5.08272320e+02
   5915    5914    5916 1       1.07730000e+02    2.99574400e+02
   5915    5914    5917 1       1.07730000e+02    2.99574400e+02
   5916    5914    5917 1       1.07730000e+02    2.99574400e+02
   5918    5919    5920 1       1.20020000e+02    5.32790560e+02
   5918    5919    5957 1       1.20640000e+02    5.08439680e+02
   5918    5955    5956 1       1.14530000e+02    3.58485120e+02
   5918    5955    5957 1       1.16810000e+02    4.91368960e+02
   5919    5918    5955 1       1.20640000e+02    5.08439680e+02
   5919    5957    5955 1       1.16810000e+02    4.91368960e+02
   5919    5957    5958 1       1.14530000e+02    3.58485120e+02
   5920    5919    5957 1       1.20640000e+02    5.08439680e+02
   5920    5921    5922 1       1.10630000e+02    3.64928480e+02
   5920    5921    5923 1       1.10630000e+02    3.64928480e+02
   5920    5921    5924 1       1.10630000e+02    3.64928480e+02
   5921    5920    5919 1       1.20830000e+02    5.08272320e+02
   5922    5921    5923 1       1.07730000e+02    2.99574400e+02
   5922    5921    5924 1       1.07730000e+02    2.99574400e+02
   5923    5921    5924 1       1.07730000e+02    2.99574400e+02
   5925    5927    5928 1       1.12000000e+02    3.56811520e+02
   5925    5927    5929 1       1.03090000e+02    5.20322240e+02
   5926    5925    5927 1       1.13690000e+02    3.54217440e+02
   5927    5929    5930 1       1.11170000e+02    3.56895200e+02
   5927    5929    5931 1       1.11170000e+02    3.56895200e+02
   5928    5927    5929 1       1.11170000e+02    3.56895200e+02
   5930    5929    5931 1       1.07220000e+02    3.00494880e+02
   5932    5933    5934 1       1.19880000e+02    3.75723200e+02
   5935    5939    5940 1       1.10280000e+02    5.05761920e+02
   5935    5939    5944 1       1.13070000e+02    5.03000480e+02
   5935    5939    5968 1       1.13070000e+02    5.03000480e+02
   5936    5935    5937 1       1.07730000e+02    2.99574400e+02
   5936    5935    5938 1       1.07730000e+02    2.99574400e+02
   5936    5935    5939 1       1.10530000e+02    3.60326080e+02
   5937    5935    5938 1       1.07730000e+02    2.99574400e+02
   5937    5935    5939 1       1.10530000e+02    3.60326080e+02
   5938    5935    5939 1       1.10530000e+02    3.60326080e+02
   5939    5940    5941 1       1.10530000e+02    3.60326080e+02
   5939    5940    5942 1       1.10530000e+02    3.60326080e+02
   5939    5940    5943 1       1.10530000e+02    3.60326080e+02
   5939    5944    5945 1       1.10210000e+02    5.31033280e+02
   5939    5944    5965 1       1.21870000e+02    5.06012960e+02
   5939    5968    5967 1       1.10210000e+02    5.31033280e+02
   5939    5968    5969 1       1.21870000e+02    5.06012960e+02
   5940    5939    5944 1       1.13070000e+02    5.03000480e+02
   5940    5939    5968 1       1.13070000e+02    5.03000480e+02
   5941    5940    5942 1       1.07730000e+02    2.99574400e+02
   5941    5940    5943 1       1.07730000e+02    2.99574400e+02
   5942    5940    5943 1       1.07730000e+02    2.99574400e+02
   5944    5939    5968 1       1.12520000e+02    5.08021280e+02
   5944    5945    5946 1       1.18410000e+02    5.33794720e+02
   5944    5945    5967 1       1.21100000e+02    5.12958400e+02
   5944    5965    5964 1       1.20020000e+02    5.32790560e+02
   5944    5965    5966 1       1.19880000e+02    3.75723200e+02
   5945    5944    5965 1       1.20730000e+02    5.29945440e+02
   5945    5946    5947 1       1.19820000e+02    3.74300640e+02
   5945    5946    5948 1       1.20730000e+02    5.29945440e+02
   5945    5967    5968 1       1.21100000e+02    5.12958400e+02
   5945    5967    6002 1       1.21100000e+02    5.12958400e+02
   5946    5945    5967 1       1.21100000e+02    5.12958400e+02
   5946    5948    5949 1       1.20640000e+02    5.08439680e+02
   5946    5948    5964 1       1.20020000e+02    5.32790560e+02
   5947    5946    5948 1       1.19880000e+02    3.75723200e+02
   5948    5949    5950 1       1.14530000e+02    3.58485120e+02
   5948    5949    5951 1       1.16810000e+02    4.91368960e+02
   5948    5949    5959 1       1.24830000e+02    4.77729120e+02
   5948    5964    5951 1       1.20640000e+02    5.08439680e+02
   5948    5964    5965 1       1.20020000e+02    5.32790560e+02
   5949    5948    5964 1       1.20640000e+02    5.08439680e+02
   5949    5951    5952 1       1.14760000e+02    3.49364000e+02
   5949    5951    5953 1       1.22490000e+02    4.75804480e+02
   5949    5951    5964 1       1.16810000e+02    4.91368960e+02
   5949    5959    5957 1       9.60300000e+01    5.40070720e+02
   5949    5959    5960 1       1.12000000e+02    3.56811520e+02
   5949    5959    5961 1       1.03090000e+02    5.20322240e+02
   5950    5949    5951 1       1.14760000e+02    3.49364000e+02
   5950    5949    5959 1       1.13690000e+02    3.54217440e+02
   5951    5949    5959 1       1.22490000e+02    4.75804480e+02
   5951    5953    5954 1       1.12000000e+02    3.56811520e+02
   5951    5953    5955 1       9.60300000e+01    5.40070720e+02
   5951    5953    5961 1       1.03090000e+02    5.20322240e+02
   5951    5964    5965 1       1.20640000e+02    5.08439680e+02
   5952    5951    5953 1       1.13690000e+02    3.54217440e+02
   5952    5951    5964 1       1.14530000e+02    3.58485120e+02
   5953    5951    5964 1       1.24830000e+02    4.77729120e+02
   5953    5955    5918 1       1.24830000e+02    4.77729120e+02
   5953    5955    5956 1       1.13690000e+02    3.54217440e+02
   5953    5955    5957 1       1.22490000e+02    4.75804480e+02
   5953    5961    5959 1       1.03830000e+02    5.17477120e+02
   5953    5961    5962 1       1.11170000e+02    3.56895200e+02
   5953    5961    5963 1       1.11170000e+02    3.56895200e+02
   5954    5953    5961 1       1.11170000e+02    3.56895200e+02
   5955    5953    5954 1       1.12000000e+02    3.56811520e+02
   5955    5957    5958 1       1.14760000e+02    3.49364000e+02
   5957    5955    5956 1       1.14760000e+02    3.49364000e+02
   5957    5959    5960 1       1.12000000e+02    3.56811520e+02
   5959    5957    5919 1       1.24830000e+02    4.77729120e+02
   5959    5957    5955 1       1.22490000e+02    4.75804480e+02
   5959    5957    5958 1       1.13690000e+02    3.54217440e+02
   5959    5961    5962 1       1.11170000e+02    3.56895200e+02
   5959    5961    5963 1       1.11170000e+02    3.56895200e+02
   5960    5959    5961 1       1.11170000e+02    3.56895200e+02
   5961    5953    5955 1       1.03090000e+02    5.20322240e+02
   5961    5959    5957 1       1.03090000e+02    5.20322240e+02
   5962    5961    5963 1       1.07220000e+02    3.00494880e+02
   5964    5965    5966 1       1.19880000e+02    3.75723200e+02
   5967    5968    5969 1       1.20730000e+02    5.29945440e+02
   5967    6002    6001 1       1.20730000e+02    5.29945440e+02
   5967    6002    6003 1       1.19820000e+02    3.74300640e+02
   5968    5967    6002 1       1.18410000e+02    5.33794720e+02
   5968    5969    5970 1       1.19880000e+02    3.75723200e+02
   5968    5969    5971 1       1.20020000e+02    5.32790560e+02
   5969    5971    5972 1       1.20640000e+02    5.08439680e+02
   5969    5971    6001 1       1.20020000e+02    5.32790560e+02
   5970    5969    5971 1       1.19880000e+02    3.75723200e+02
   5971    5972    5973 1       1.14530000e+02    3.58485120e+02
   5971    5972    5974 1       1.16810000e+02    4.91368960e+02
   5971    5972    5996 1       1.24830000e+02    4.77729120e+02
   5971    6001    5974 1       1.20640000e+02    5.08439680e+02
   5971    6001    6002 1       1.20020000e+02    5.32790560e+02
   5972    5971    6001 1       1.20640000e+02    5.08439680e+02
   5972    5974    5975 1       1.14760000e+02    3.49364000e+02
   5972    5974    5976 1       1.22490000e+02    4.75804480e+02
   5972    5974    6001 1       1.16810000e+02    4.91368960e+02
   5972    5996    5994 1       9.60300000e+01    5.40070720e+02
   5972    5996    5997 1       1.12000000e+02    3.56811520e+02
   5972    5996    5998 1       1.03090000e+02    5.20322240e+02
   5973    5972    5974 1       1.14760000e+02    3.49364000e+02
   5973    5972    5996 1       1.13690000e+02    3.54217440e+02
   5974    5972    5996 1       1.22490000e+02    4.75804480e+02
   5974    5976    5977 1       1.12000000e+02    3.56811520e+02
   5974    5976    5978 1       9.60300000e+01    5.40070720e+02
   5974    5976    5998 1       1.03090000e+02    5.20322240e+02
   5974    6001    6002 1       1.20640000e+02    5.08439680e+02
   5975    5974    5976 1       1.13690000e+02    3.54217440e+02
   5975    5974    6001 1       1.14530000e+02    3.58485120e+02
   5976    5974    6001 1       1.24830000e+02    4.77729120e+02
   5976    5978    5979 1       1.13690000e+02    3.54217440e+02
   5976    5978    5980 1       1.24830000e+02    4.77729120e+02
   5976    5978    5994 1       1.22490000e+02    4.75804480e+02
   5976    5998    5996 1       1.03830000e+02    5.17477120e+02
   5976    5998    5999 1       1.11170000e+02    3.56895200e+02
   5976    5998    6000 1       1.11170000e+02    3.56895200e+02
   5977    5976    5978 1       1.12000000e+02    3.56811520e+02
   5977    5976    5998 1       1.11170000e+02    3.56895200e+02
   5978    5976    5998 1       1.03090000e+02    5.20322240e+02
   5978    5980    5981 1       1.20640000e+02    5.08439680e+02
   5978    5980    5989 1       1.20640000e+02    5.08439680e+02
   5978    5994    5981 1       1.16810000e+02    4.91368960e+02
   5978    5994    5995 1       1.14760000e+02    3.49364000e+02
   5978    5994    5996 1       1.22490000e+02    4.75804480e+02
   5979    5978    5980 1       1.14530000e+02    3.58485120e+02
   5979    5978    5994 1       1.14760000e+02    3.49364000e+02
   5980    5978    5994 1       1.16810000e+02    4.91368960e+02
   5980    5981    5982 1       1.20020000e+02    5.32790560e+02
   5980    5981    5994 1       1.20640000e+02    5.08439680e+02
   5980    5989    5988 1       1.20020000e+02    5.32790560e+02
   5980    5989    5990 1       1.20830000e+02    5.08272320e+02
   5981    5980    5989 1       1.20020000e+02    5.32790560e+02
   5981    5982    5983 1       1.20830000e+02    5.08272320e+02
   5981    5982    5987 1       1.20020000e+02    5.32790560e+02
   5981    5994    5995 1       1.14530000e+02    3.58485120e+02
   5981    5994    5996 1       1.24830000e+02    4.77729120e+02
   5982    5981    5994 1       1.20640000e+02    5.08439680e+02
   5982    5983    5984 1       1.10630000e+02    3.64928480e+02
   5982    5983    5985 1       1.10630000e+02    3.64928480e+02
   5982    5983    5986 1       1.10630000e+02    3.64928480e+02
   5982    5987    4437 1       1.20640000e+02    5.08439680e+02
   5982    5987    5988 1       1.20020000e+02    5.32790560e+02
   5983    5982    5987 1       1.20830000e+02    5.08272320e+02
   5984    5983    5985 1       1.07730000e+02    2.99574400e+02
   5984    5983    5986 1       1.07730000e+02    2.99574400e+02
   5985    5983    5986 1       1.07730000e+02    2.99574400e+02
   5987    4437    4438 1       1.14530000e+02    3.58485120e+02
   5987    4437    4439 1       1.16810000e+02    4.91368960e+02
   5987    5988    4439 1       1.20640000e+02    5.08439680e+02
   5987    5988    5989 1       1.20020000e+02    5.32790560e+02
   5988    4439    4437 1       1.16810000e+02    4.91368960e+02
   5988    4439    4440 1       1.14530000e+02    3.58485120e+02
   5988    5987    4437 1       1.20640000e+02    5.08439680e+02
   5989    5988    4439 1       1.20640000e+02    5.08439680e+02
   5989    5990    5991 1       1.10630000e+02    3.64928480e+02
   5989    5990    5992 1       1.10630000e+02    3.64928480e+02
   5989    5990    5993 1       1.10630000e+02    3.64928480e+02
   5990    5989    5988 1       1.20830000e+02    5.08272320e+02
   5991    5990    5992 1       1.07730000e+02    2.99574400e+02
   5991    5990    5993 1       1.07730000e+02    2.99574400e+02
   5992    5990    5993 1       1.07730000e+02    2.99574400e+02
   5994    5996    5997 1       1.12000000e+02    3.56811520e+02
   5994    5996    5998 1       1.03090000e+02    5.20322240e+02
   5995    5994    5996 1       1.13690000e+02    3.54217440e+02
   5996    5998    5999 1       1.11170000e+02    3.56895200e+02
   5996    5998    6000 1       1.11170000e+02    3.56895200e+02
   5997    5996    5998 1       1.11170000e+02    3.56895200e+02
   5999    5998    6000 1       1.07220000e+02    3.00494880e+02
   6001    6002    6003 1       1.19880000e+02    3.75723200e+02
   6004    6008    6009 1       1.10280000e+02    5.05761920e+02
   6004    6008    6013 1       1.13070000e+02    5.03000480e+02
   6004    6008    6037 1       1.13070000e+02    5.03000480e+02
   6005    6004    6006 1       1.07730000e+02    2.99574400e+02
   6005    6004    6007 1       1.07730000e+02    2.99574400e+02
   6005    6004    6008 1       1.10530000e+02    3.60326080e+02
   6006    6004    6007 1       1.07730000e+02    2.99574400e+02
   6006    6004    6008 1       1.10530000e+02    3.60326080e+02
   6007    6004    6008 1       1.10530000e+02    3.60326080e+02
   6008    6009    6010 1       1.10530000e+02    3.60326080e+02
   6008    6009    6011 1       1.10530000e+02    3.60326080e+02
   6008    6009    6012 1       1.10530000e+02    3.60326080e+02
   6008    6013    6014 1       1.10210000e+02    5.31033280e+02
   6008    6013    6034 1       1.21870000e+02    5.06012960e+02
   6008    6037    6036 1       1.10210000e+02    5.31033280e+02
   6008    6037    6038 1       1.21870000e+02    5.06012960e+02
   6009    6008    6013 1       1.13070000e+02    5.03000480e+02
   6009    6008    6037 1       1.13070000e+02    5.03000480e+02
   6010    6009    6011 1       1.07730000e+02    2.99574400e+02
   6010    6009    6012 1       1.07730000e+02    2.99574400e+02
   6011    6009    6012 1       1.07730000e+02    2.99574400e+02
   6013    6008    6037 1       1.12520000e+02    5.08021280e+02
   6013    6014    6015 1       1.18410000e+02    5.33794720e+02
   6013    6014    6036 1       1.21100000e+02    5.12958400e+02
   6013    6034    6033 1       1.20020000e+02    5.32790560e+02
   6013    6034    6035 1       1.19880000e+02    3.75723200e+02
   6014    6013    6034 1       1.20730000e+02    5.29945440e+02
   6014    6015    6016 1       1.19820000e+02    3.74300640e+02
   6014    6015    6017 1       1.20730000e+02    5.29945440e+02
   6014    6036    6037 1       1.21100000e+02    5.12958400e+02
   6014    6036    6071 1       1.21100000e+02    5.12958400e+02
   6015    6014    6036 1       1.21100000e+02    5.12958400e+02
   6015    6017    6018 1       1.20640000e+02    5.08439680e+02
   6015    6017    6033 1       1.20020000e+02    5.32790560e+02
   6016    6015    6017 1       1.19880000e+02    3.75723200e+02
   6017    6018    6019 1       1.14530000e+02    3.58485120e+02
   6017    6018    6020 1       1.16810000e+02    4.91368960e+02
   6017    6018    6028 1       1.24830000e+02    4.77729120e+02
   6017    6033    6020 1       1.20640000e+02    5.08439680e+02
   6017    6033    6034 1       1.20020000e+02    5.32790560e+02
   6018    6017    6033 1       1.20640000e+02    5.08439680e+02
   6018    6020    6021 1       1.14760000e+02    3.49364000e+02
   6018    6020    6022 1       1.22490000e+02    4.75804480e+02
   6018    6020    6033 1       1.16810000e+02    4.91368960e+02
   6018    6028    6026 1       9.60300000e+01    5.40070720e+02
   6018    6028    6029 1       1.12000000e+02    3.56811520e+02
   6018    6028    6030 1       1.03090000e+02    5.20322240e+02
   6019    6018    6020 1       1.14760000e+02    3.49364000e+02
   6019    6018    6028 1       1.13690000e+02    3.54217440e+02
   6020    6018    6028 1       1.22490000e+02    4.75804480e+02
   6020    6022    6023 1       1.12000000e+02    3.56811520e+02
   6020    6022    6024 1       9.60300000e+01    5.40070720e+02
   6020    6022    6030 1       1.03090000e+02    5.20322240e+02
   6020    6033    6034 1       1.20640000e+02    5.08439680e+02
   6021    6020    6022 1       1.13690000e+02    3.54217440e+02
   6021    6020    6033 1       1.14530000e+02    3.58485120e+02
   6022    6020    6033 1       1.24830000e+02    4.77729120e+02
   6022    6024    5505 1       1.24830000e+02    4.77729120e+02
   6022    6024    6025 1       1.13690000e+02    3.54217440e+02
   6022    6024    6026 1       1.22490000e+02    4.75804480e+02
   6022    6030    6028 1       1.03830000e+02    5.17477120e+02
   6022    6030    6031 1       1.11170000e+02    3.56895200e+02
   6022    6030    6032 1       1.11170000e+02    3.56895200e+02
   6023    6022    6030 1       1.11170000e+02    3.56895200e+02
   6024    6022    6023 1       1.12000000e+02    3.56811520e+02
   6024    6026    6027 1       1.14760000e+02    3.49364000e+02
   6026    6024    6025 1       1.14760000e+02    3.49364000e+02
   6026    6028    6029 1       1.12000000e+02    3.56811520e+02
   6028    6026    5504 1       1.24830000e+02    4.77729120e+02
   6028    6026    6024 1       1.22490000e+02    4.75804480e+02
   6028    6026    6027 1       1.13690000e+02    3.54217440e+02
   6028    6030    6031 1       1.11170000e+02    3.56895200e+02
   6028    6030    6032 1       1.11170000e+02    3.56895200e+02
   6029    6028    6030 1       1.11170000e+02    3.56895200e+02
   6030    6022    6024 1       1.03090000e+02    5.20322240e+02
   6030    6028    6026 1       1.03090000e+02    5.20322240e+02
   6031    6030    6032 1       1.07220000e+02    3.00494880e+02
   6033    6034    6035 1       1.19880000e+02    3.75723200e+02
   6036    6037    6038 1       1.20730000e+02    5.29945440e+02
   6036    6071    6070 1       1.20730000e+02    5.29945440e+02
   6036    6071    6072 1       1.19820000e+02    3.74300640e+02
   6037    6036    6071 1       1.18410000e+02    5.33794720e+02
   6037    6038    6039 1       1.19880000e+02    3.75723200e+02
   6037    6038    6040 1       1.20020000e+02    5.32790560e+02
   6038    6040    6041 1       1.20640000e+02    5.08439680e+02
   6038    6040    6070 1       1.20020000e+02    5.32790560e+02
   6039    6038    6040 1       1.19880000e+02    3.75723200e+02
   6040    6041    6042 1       1.14530000e+02    3.58485120e+02
   6040    6041    6043 1       1.16810000e+02    4.91368960e+02
   6040    6041    6065 1       1.24830000e+02    4.77729120e+02
   6040    6070    6043 1       1.20640000e+02    5.08439680e+02
   6040    6070    6071 1       1.20020000e+02    5.32790560e+02
   6041    6040    6070 1       1.20640000e+02    5.08439680e+02
   6041    6043    6044 1       1.14760000e+02    3.49364000e+02
   6041    6043    6045 1       1.22490000e+02    4.75804480e+02
   6041    6043    6070 1       1.16810000e+02    4.91368960e+02
   6041    6065    6063 1       9.60300000e+01    5.40070720e+02
   6041    6065    6066 1       1.12000000e+02    3.56811520e+02
   6041    6065    6067 1       1.03090000e+02    5.20322240e+02
   6042    6041    6043 1       1.14760000e+02    3.49364000e+02
   6042    6041    6065 1       1.13690000e+02    3.54217440e+02
   6043    6041    6065 1       1.22490000e+02    4.75804480e+02
   6043    6045    6046 1       1.12000000e+02    3.56811520e+02
   6043    6045    6047 1       9.60300000e+01    5.40070720e+02
   6043    6045    6067 1       1.03090000e+02    5.20322240e+02
   6043    6070    6071 1       1.20640000e+02    5.08439680e+02
   6044    6043    6045 1       1.13690000e+02    3.54217440e+02
   6044    6043    6070 1       1.14530000e+02    3.58485120e+02
   6045    6043    6070 1       1.24830000e+02    4.77729120e+02
   6045    6047    6048 1       1.13690000e+02    3.54217440e+02
   6045    6047    6049 1       1.24830000e+02    4.77729120e+02
   6045    6047    6063 1       1.22490000e+02    4.75804480e+02
   6045    6067    6065 1       1.03830000e+02    5.17477120e+02
   6045    6067    6068 1       1.11170000e+02    3.56895200e+02
   6045    6067    6069 1       1.11170000e+02    3.56895200e+02
   6046    6045    6047 1       1.12000000e+02    3.56811520e+02
   6046    6045    6067 1       1.11170000e+02    3.56895200e+02
   6047    6045    6067 1       1.03090000e+02    5.20322240e+02
   6047    6049    6050 1       1.20640000e+02    5.08439680e+02
   6047    6049    6058 1       1.20640000e+02    5.08439680e+02
   6047    6063    6050 1       1.16810000e+02    4.91368960e+02
   6047    6063    6064 1       1.14760000e+02    3.49364000e+02
   6047    6063    6065 1       1.22490000e+02    4.75804480e+02
   6048    6047    6049 1       1.14530000e+02    3.58485120e+02
   6048    6047    6063 1       1.14760000e+02    3.49364000e+02
   6049    6047    6063 1       1.16810000e+02    4.91368960e+02
   6049    6050    6051 1       1.20020000e+02    5.32790560e+02
   6049    6050    6063 1       1.20640000e+02    5.08439680e+02
   6049    6058    6057 1       1.20020000e+02    5.32790560e+02
   6049    6058    6059 1       1.20830000e+02    5.08272320e+02
   6050    6049    6058 1       1.20020000e+02    5.32790560e+02
   6050    6051    6052 1       1.20830000e+02    5.08272320e+02
   6050    6051    6056 1       1.20020000e+02    5.32790560e+02
   6050    6063    6064 1       1.14530000e+02    3.58485120e+02
   6050    6063    6065 1       1.24830000e+02    4.77729120e+02
   6051    6050    6063 1       1.20640000e+02    5.08439680e+02
   6051    6052    6053 1       1.10630000e+02    3.64928480e+02
   6051    6052    6054 1       1.10630000e+02    3.64928480e+02
   6051    6052    6055 1       1.10630000e+02    3.64928480e+02
   6051    6056    1472 1       1.20640000e+02    5.08439680e+02
   6051    6056    6057 1       1.20020000e+02    5.32790560e+02
   6052    6051    6056 1       1.20830000e+02    5.08272320e+02
   6053    6052    6054 1       1.07730000e+02    2.99574400e+02
   6053    6052    6055 1       1.07730000e+02    2.99574400e+02
   6054    6052    6055 1       1.07730000e+02    2.99574400e+02
   6056    1472    1470 1       1.16810000e+02    4.91368960e+02
   6056    1472    1473 1       1.14530000e+02    3.58485120e+02
   6056    6057    1470 1       1.20640000e+02    5.08439680e+02
   6056    6057    6058 1       1.20020000e+02    5.32790560e+02
   6057    1470    1471 1       1.14530000e+02    3.58485120e+02
   6057    1470    1472 1       1.16810000e+02    4.91368960e+02
   6057    6056    1472 1       1.20640000e+02    5.08439680e+02
   6058    6057    1470 1       1.20640000e+02    5.08439680e+02
   6058    6059    6060 1       1.10630000e+02    3.64928480e+02
   6058    6059    6061 1       1.10630000e+02    3.64928480e+02
   6058    6059    6062 1       1.10630000e+02    3.64928480e+02
   6059    6058    6057 1       1.20830000e+02    5.08272320e+02
   6060    6059    6061 1       1.07730000e+02    2.99574400e+02
   6060    6059    6062 1       1.07730000e+02    2.99574400e+02
   6061    6059    6062 1       1.07730000e+02    2.99574400e+02
   6063    6065    6066 1       1.12000000e+02    3.56811520e+02
   6063    6065    6067 1       1.03090000e+02    5.20322240e+02
   6064    6063    6065 1       1.13690000e+02    3.54217440e+02
   6065    6067    6068 1       1.11170000e+02    3.56895200e+02
   6065    6067    6069 1       1.11170000e+02    3.56895200e+02
   6066    6065    6067 1       1.11170000e+02    3.56895200e+02
   6068    6067    6069 1       1.07220000e+02    3.00494880e+02
   6070    6071    6072 1       1.19880000e+02    3.75723200e+02
   6073    6077    6078 1       1.10280000e+02    5.05761920e+02
   6073    6077    6082 1       1.13070000e+02    5.03000480e+02
   6073    6077    6106 1       1.13070000e+02    5.03000480e+02
   6074    6073    6075 1       1.07730000e+02    2.99574400e+02
   6074    6073    6076 1       1.07730000e+02    2.99574400e+02
   6074    6073    6077 1       1.10530000e+02    3.60326080e+02
   6075    6073    6076 1       1.07730000e+02    2.99574400e+02
   6075    6073    6077 1       1.10530000e+02    3.60326080e+02
   6076    6073    6077 1       1.10530000e+02    3.60326080e+02
   6077    6078    6079 1       1.10530000e+02    3.60326080e+02
   6077    6078    6080 1       1.10530000e+02    3.60326080e+02
   6077    6078    6081 1       1.10530000e+02    3.60326080e+02
   6077    6082    6083 1       1.10210000e+02    5.31033280e+02
   6077    6082    6103 1       1.21870000e+02    5.06012960e+02
   6077    6106    6105 1       1.10210000e+02    5.31033280e+02
   6077    6106    6107 1       1.21870000e+02    5.06012960e+02
   6078    6077    6082 1       1.13070000e+02    5.03000480e+02
   6078    6077    6106 1       1.13070000e+02    5.03000480e+02
   6079    6078    6080 1       1.07730000e+02    2.99574400e+02
   6079    6078    6081 1       1.07730000e+02    2.99574400e+02
   6080    6078    6081 1       1.07730000e+02    2.99574400e+02
   6082    6077    6106 1       1.12520000e+02    5.08021280e+02
   6082    6083    6084 1       1.18410000e+02    5.33794720e+02
   6082    6083    6105 1       1.21100000e+02    5.12958400e+02
   6082    6103    6102 1       1.20020000e+02    5.32790560e+02
   6082    6103    6104 1       1.19880000e+02    3.75723200e+02
   6083    6082    6103 1       1.20730000e+02    5.29945440e+02
   6083    6084    6085 1       1.19820000e+02    3.74300640e+02
   6083    6084    6086 1       1.20730000e+02    5.29945440e+02
   6083    6105    6106 1       1.21100000e+02    5.12958400e+02
   6083    6105    6140 1       1.21100000e+02    5.12958400e+02
   6084    6083    6105 1       1.21100000e+02    5.12958400e+02
   6084    6086    6087 1       1.20640000e+02    5.08439680e+02
   6084    6086    6102 1       1.20020000e+02    5.32790560e+02
   6085    6084    6086 1       1.19880000e+02    3.75723200e+02
   6086    6087    6088 1       1.14530000e+02    3.58485120e+02
   6086    6087    6089 1       1.16810000e+02    4.91368960e+02
   6086    6087    6097 1       1.24830000e+02    4.77729120e+02
   6086    6102    6089 1       1.20640000e+02    5.08439680e+02
   6086    6102    6103 1       1.20020000e+02    5.32790560e+02
   6087    6086    6102 1       1.20640000e+02    5.08439680e+02
   6087    6089    6090 1       1.14760000e+02    3.49364000e+02
   6087    6089    6091 1       1.22490000e+02    4.75804480e+02
   6087    6089    6102 1       1.16810000e+02    4.91368960e+02
   6087    6097    6095 1       9.60300000e+01    5.40070720e+02
   6087    6097    6098 1       1.12000000e+02    3.56811520e+02
   6087    6097    6099 1       1.03090000e+02    5.20322240e+02
   6088    6087    6089 1       1.14760000e+02    3.49364000e+02
   6088    6087    6097 1       1.13690000e+02    3.54217440e+02
   6089    6087    6097 1       1.22490000e+02    4.75804480e+02
   6089    6091    6092 1       1.12000000e+02    3.56811520e+02
   6089    6091    6093 1       9.60300000e+01    5.40070720e+02
   6089    6091    6099 1       1.03090000e+02    5.20322240e+02
   6089    6102    6103 1       1.20640000e+02    5.08439680e+02
   6090    6089    6091 1       1.13690000e+02    3.54217440e+02
   6090    6089    6102 1       1.14530000e+02    3.58485120e+02
   6091    6089    6102 1       1.24830000e+02    4.77729120e+02
   6091    6093    4400 1       1.24830000e+02    4.77729120e+02
   6091    6093    6094 1       1.13690000e+02    3.54217440e+02
   6091    6093    6095 1       1.22490000e+02    4.75804480e+02
   6091    6099    6097 1       1.03830000e+02    5.17477120e+02
   6091    6099    6100 1       1.11170000e+02    3.56895200e+02
   6091    6099    6101 1       1.11170000e+02    3.56895200e+02
   6092    6091    6099 1       1.11170000e+02    3.56895200e+02
   6093    6091    6092 1       1.12000000e+02    3.56811520e+02
   6093    6095    6096 1       1.14760000e+02    3.49364000e+02
   6095    6093    6094 1       1.14760000e+02    3.49364000e+02
   6095    6097    6098 1       1.12000000e+02    3.56811520e+02
   6097    6095    4401 1       1.24830000e+02    4.77729120e+02
   6097    6095    6093 1       1.22490000e+02    4.75804480e+02
   6097    6095    6096 1       1.13690000e+02    3.54217440e+02
   6097    6099    6100 1       1.11170000e+02    3.56895200e+02
   6097    6099    6101 1       1.11170000e+02    3.56895200e+02
   6098    6097    6099 1       1.11170000e+02    3.56895200e+02
   6099    6091    6093 1       1.03090000e+02    5.20322240e+02
   6099    6097    6095 1       1.03090000e+02    5.20322240e+02
   6100    6099    6101 1       1.07220000e+02    3.00494880e+02
   6102    6103    6104 1       1.19880000e+02    3.75723200e+02
   6105    6106    6107 1       1.20730000e+02    5.29945440e+02
   6105    6140    6139 1       1.20730000e+02    5.29945440e+02
   6105    6140    6141 1       1.19820000e+02    3.74300640e+02
   6106    6105    6140 1       1.18410000e+02    5.33794720e+02
   6106    6107    6108 1       1.19880000e+02    3.75723200e+02
   6106    6107    6109 1       1.20020000e+02    5.32790560e+02
   6107    6109    6110 1       1.20640000e+02    5.08439680e+02
   6107    6109    6139 1       1.20020000e+02    5.32790560e+02
   6108    6107    6109 1       1.19880000e+02    3.75723200e+02
   6109    6110    6111 1       1.14530000e+02    3.58485120e+02
   6109    6110    6112 1       1.16810000e+02    4.91368960e+02
   6109    6110    6134 1       1.24830000e+02    4.77729120e+02
   6109    6139    6112 1       1.20640000e+02    5.08439680e+02
   6109    6139    6140 1       1.20020000e+02    5.32790560e+02
   6110    6109    6139 1       1.20640000e+02    5.08439680e+02
   6110    6112    6113 1       1.14760000e+02    3.49364000e+02
   6110    6112    6114 1       1.22490000e+02    4.75804480e+02
   6110    6112    6139 1       1.16810000e+02    4.91368960e+02
   6110    6134    6132 1       9.60300000e+01    5.40070720e+02
   6110    6134    6135 1       1.12000000e+02    3.56811520e+02
   6110    6134    6136 1       1.03090000e+02    5.20322240e+02
   6111    6110    6112 1       1.14760000e+02    3.49364000e+02
   6111    6110    6134 1       1.13690000e+02    3.54217440e+02
   6112    6110    6134 1       1.22490000e+02    4.75804480e+02
   6112    6114    6115 1       1.12000000e+02    3.56811520e+02
   6112    6114    6116 1       9.60300000e+01    5.40070720e+02
   6112    6114    6136 1       1.03090000e+02    5.20322240e+02
   6112    6139    6140 1       1.20640000e+02    5.08439680e+02
   6113    6112    6114 1       1.13690000e+02    3.54217440e+02
   6113    6112    6139 1       1.14530000e+02    3.58485120e+02
   6114    6112    6139 1       1.24830000e+02    4.77729120e+02
   6114    6116    6117 1       1.13690000e+02    3.54217440e+02
   6114    6116    6118 1       1.24830000e+02    4.77729120e+02
   6114    6116    6132 1       1.22490000e+02    4.75804480e+02
   6114    6136    6134 1       1.03830000e+02    5.17477120e+02
   6114    6136    6137 1       1.11170000e+02    3.56895200e+02
   6114    6136    6138 1       1.11170000e+02    3.56895200e+02
   6115    6114    6116 1       1.12000000e+02    3.56811520e+02
   6115    6114    6136 1       1.11170000e+02    3.56895200e+02
   6116    6114    6136 1       1.03090000e+02    5.20322240e+02
   6116    6118    6119 1       1.20640000e+02    5.08439680e+02
   6116    6118    6127 1       1.20640000e+02    5.08439680e+02
   6116    6132    6119 1       1.16810000e+02    4.91368960e+02
   6116    6132    6133 1       1.14760000e+02    3.49364000e+02
   6116    6132    6134 1       1.22490000e+02    4.75804480e+02
   6117    6116    6118 1       1.14530000e+02    3.58485120e+02
   6117    6116    6132 1       1.14760000e+02    3.49364000e+02
   6118    6116    6132 1       1.16810000e+02    4.91368960e+02
   6118    6119    6120 1       1.20020000e+02    5.32790560e+02
   6118    6119    6132 1       1.20640000e+02    5.08439680e+02
   6118    6127    6126 1       1.20020000e+02    5.32790560e+02
   6118    6127    6128 1       1.20830000e+02    5.08272320e+02
   6119    6118    6127 1       1.20020000e+02    5.32790560e+02
   6119    6120    6121 1       1.20830000e+02    5.08272320e+02
   6119    6120    6125 1       1.20020000e+02    5.32790560e+02
   6119    6132    6133 1       1.14530000e+02    3.58485120e+02
   6119    6132    6134 1       1.24830000e+02    4.77729120e+02
   6120    6119    6132 1       1.20640000e+02    5.08439680e+02
   6120    6121    6122 1       1.10630000e+02    3.64928480e+02
   6120    6121    6123 1       1.10630000e+02    3.64928480e+02
   6120    6121    6124 1       1.10630000e+02    3.64928480e+02
   6120    6125    1953 1       1.20640000e+02    5.08439680e+02
   6120    6125    6126 1       1.20020000e+02    5.32790560e+02
   6121    6120    6125 1       1.20830000e+02    5.08272320e+02
   6122    6121    6123 1       1.07730000e+02    2.99574400e+02
   6122    6121    6124 1       1.07730000e+02    2.99574400e+02
   6123    6121    6124 1       1.07730000e+02    2.99574400e+02
   6125    1953    1954 1       1.14530000e+02    3.58485120e+02
   6125    1953    1955 1       1.16810000e+02    4.91368960e+02
   6125    6126    1955 1       1.20640000e+02    5.08439680e+02
   6125    6126    6127 1       1.20020000e+02    5.32790560e+02
   6126    1955    1953 1       1.16810000e+02    4.91368960e+02
   6126    1955    1956 1       1.14530000e+02    3.58485120e+02
   6126    6125    1953 1       1.20640000e+02    5.08439680e+02
   6127    6126    1955 1       1.20640000e+02    5.08439680e+02
   6127    6128    6129 1       1.10630000e+02    3.64928480e+02
   6127    6128    6130 1       1.10630000e+02    3.64928480e+02
   6127    6128    6131 1       1.10630000e+02    3.64928480e+02
   6128    6127    6126 1       1.20830000e+02    5.08272320e+02
   6129    6128    6130 1       1.07730000e+02    2.99574400e+02
   6129    6128    6131 1       1.07730000e+02    2.99574400e+02
   6130    6128    6131 1       1.07730000e+02    2.99574400e+02
   6132    6134    6135 1       1.12000000e+02    3.56811520e+02
   6132    6134    6136 1       1.03090000e+02    5.20322240e+02
   6133    6132    6134 1       1.13690000e+02    3.54217440e+02
   6134    6136    6137 1       1.11170000e+02    3.56895200e+02
   6134    6136    6138 1       1.11170000e+02    3.56895200e+02
   6135    6134    6136 1       1.11170000e+02    3.56895200e+02
   6137    6136    6138 1       1.07220000e+02    3.00494880e+02
   6139    6140    6141 1       1.19880000e+02    3.75723200e+02
   6142    6146    6147 1       1.10280000e+02    5.05761920e+02
   6142    6146    6151 1       1.13070000e+02    5.03000480e+02
   6142    6146    6175 1       1.13070000e+02    5.03000480e+02
   6143    6142    6144 1       1.07730000e+02    2.99574400e+02
   6143    6142    6145 1       1.07730000e+02    2.99574400e+02
   6143    6142    6146 1       1.10530000e+02    3.60326080e+02
   6144    6142    6145 1       1.07730000e+02    2.99574400e+02
   6144    6142    6146 1       1.10530000e+02    3.60326080e+02
   6145    6142    6146 1       1.10530000e+02    3.60326080e+02
   6146    6147    6148 1       1.10530000e+02    3.60326080e+02
   6146    6147    6149 1       1.10530000e+02    3.60326080e+02
   6146    6147    6150 1       1.10530000e+02    3.60326080e+02
   6146    6151    6152 1       1.10210000e+02    5.31033280e+02
   6146    6151    6172 1       1.21870000e+02    5.06012960e+02
   6146    6175    6174 1       1.10210000e+02    5.31033280e+02
   6146    6175    6176 1       1.21870000e+02    5.06012960e+02
   6147    6146    6151 1       1.13070000e+02    5.03000480e+02
   6147    6146    6175 1       1.13070000e+02    5.03000480e+02
   6148    6147    6149 1       1.07730000e+02    2.99574400e+02
   6148    6147    6150 1       1.07730000e+02    2.99574400e+02
   6149    6147    6150 1       1.07730000e+02    2.99574400e+02
   6151    6146    6175 1       1.12520000e+02    5.08021280e+02
   6151    6152    6153 1       1.18410000e+02    5.33794720e+02
   6151    6152    6174 1       1.21100000e+02    5.12958400e+02
   6151    6172    6171 1       1.20020000e+02    5.32790560e+02
   6151    6172    6173 1       1.19880000e+02    3.75723200e+02
   6152    6151    6172 1       1.20730000e+02    5.29945440e+02
   6152    6153    6154 1       1.19820000e+02    3.74300640e+02
   6152    6153    6155 1       1.20730000e+02    5.29945440e+02
   6152    6174    6175 1       1.21100000e+02    5.12958400e+02
   6152    6174    6209 1       1.21100000e+02    5.12958400e+02
   6153    6152    6174 1       1.21100000e+02    5.12958400e+02
   6153    6155    6156 1       1.20640000e+02    5.08439680e+02
   6153    6155    6171 1       1.20020000e+02    5.32790560e+02
   6154    6153    6155 1       1.19880000e+02    3.75723200e+02
   6155    6156    6157 1       1.14530000e+02    3.58485120e+02
   6155    6156    6158 1       1.16810000e+02    4.91368960e+02
   6155    6156    6166 1       1.24830000e+02    4.77729120e+02
   6155    6171    6158 1       1.20640000e+02    5.08439680e+02
   6155    6171    6172 1       1.20020000e+02    5.32790560e+02
   6156    6155    6171 1       1.20640000e+02    5.08439680e+02
   6156    6158    6159 1       1.14760000e+02    3.49364000e+02
   6156    6158    6160 1       1.22490000e+02    4.75804480e+02
   6156    6158    6171 1       1.16810000e+02    4.91368960e+02
   6156    6166    6164 1       1.03090000e+02    5.20322240e+02
   6156    6166    6167 1       1.12000000e+02    3.56811520e+02
   6156    6166    6168 1       1.03090000e+02    5.20322240e+02
   6157    6156    6158 1       1.14760000e+02    3.49364000e+02
   6157    6156    6166 1       1.13690000e+02    3.54217440e+02
   6158    6156    6166 1       1.22490000e+02    4.75804480e+02
   6158    6160    6161 1       1.12000000e+02    3.56811520e+02
   6158    6160    6162 1       1.03090000e+02    5.20322240e+02
   6158    6160    6168 1       1.03090000e+02    5.20322240e+02
   6158    6171    6172 1       1.20640000e+02    5.08439680e+02
   6159    6158    6160 1       1.13690000e+02    3.54217440e+02
   6159    6158    6171 1       1.14530000e+02    3.58485120e+02
   6160    6158    6171 1       1.24830000e+02    4.77729120e+02
   6160    6162    6163 1       1.11170000e+02    3.56895200e+02
   6160    6162    6164 1       1.03830000e+02    5.17477120e+02
   6160    6168    6166 1       1.03830000e+02    5.17477120e+02
   6160    6168    6169 1       1.11170000e+02    3.56895200e+02
   6160    6168    6170 1       1.11170000e+02    3.56895200e+02
   6161    6160    6162 1       1.11170000e+02    3.56895200e+02
   6161    6160    6168 1       1.11170000e+02    3.56895200e+02
   6162    6160    6168 1       1.03830000e+02    5.17477120e+02
   6162    6164    6165 1       1.11170000e+02    3.56895200e+02
   6162    6164    6166 1       1.03830000e+02    5.17477120e+02
   6163    6162    6164 1       1.11170000e+02    3.56895200e+02
   6164    6166    6167 1       1.11170000e+02    3.56895200e+02
   6164    6166    6168 1       1.03830000e+02    5.17477120e+02
   6165    6164    6166 1       1.11170000e+02    3.56895200e+02
   6166    6168    6169 1       1.11170000e+02    3.56895200e+02
   6166    6168    6170 1       1.11170000e+02    3.56895200e+02
   6167    6166    6168 1       1.11170000e+02    3.56895200e+02
   6169    6168    6170 1       1.07220000e+02    3.00494880e+02
   6171    6172    6173 1       1.19880000e+02    3.75723200e+02
   6174    6175    6176 1       1.20730000e+02    5.29945440e+02
   6174    6209    6208 1       1.20730000e+02    5.29945440e+02
   6174    6209    6210 1       1.19820000e+02    3.74300640e+02
   6175    6174    6209 1       1.18410000e+02    5.33794720e+02
   6175    6176    6177 1       1.19880000e+02    3.75723200e+02
   6175    6176    6178 1       1.20020000e+02    5.32790560e+02
   6176    6178    6179 1       1.20640000e+02    5.08439680e+02
   6176    6178    6208 1       1.20020000e+02    5.32790560e+02
   6177    6176    6178 1       1.19880000e+02    3.75723200e+02
   6178    6179    6180 1       1.14530000e+02    3.58485120e+02
   6178    6179    6181 1       1.16810000e+02    4.91368960e+02
   6178    6179    6203 1       1.24830000e+02    4.77729120e+02
   6178    6208    6181 1       1.20640000e+02    5.08439680e+02
   6178    6208    6209 1       1.20020000e+02    5.32790560e+02
   6179    6178    6208 1       1.20640000e+02    5.08439680e+02
   6179    6181    6182 1       1.14760000e+02    3.49364000e+02
   6179    6181    6183 1       1.22490000e+02    4.75804480e+02
   6179    6181    6208 1       1.16810000e+02    4.91368960e+02
   6179    6203    6201 1       9.60300000e+01    5.40070720e+02
   6179    6203    6204 1       1.12000000e+02    3.56811520e+02
   6179    6203    6205 1       1.03090000e+02    5.20322240e+02
   6180    6179    6181 1       1.14760000e+02    3.49364000e+02
   6180    6179    6203 1       1.13690000e+02    3.54217440e+02
   6181    6179    6203 1       1.22490000e+02    4.75804480e+02
   6181    6183    6184 1       1.12000000e+02    3.56811520e+02
   6181    6183    6185 1       9.60300000e+01    5.40070720e+02
   6181    6183    6205 1       1.03090000e+02    5.20322240e+02
   6181    6208    6209 1       1.20640000e+02    5.08439680e+02
   6182    6181    6183 1       1.13690000e+02    3.54217440e+02
   6182    6181    6208 1       1.14530000e+02    3.58485120e+02
   6183    6181    6208 1       1.24830000e+02    4.77729120e+02
   6183    6185    6186 1       1.13690000e+02    3.54217440e+02
   6183    6185    6187 1       1.24830000e+02    4.77729120e+02
   6183    6185    6201 1       1.22490000e+02    4.75804480e+02
   6183    6205    6203 1       1.03830000e+02    5.17477120e+02
   6183    6205    6206 1       1.11170000e+02    3.56895200e+02
   6183    6205    6207 1       1.11170000e+02    3.56895200e+02
   6184    6183    6185 1       1.12000000e+02    3.56811520e+02
   6184    6183    6205 1       1.11170000e+02    3.56895200e+02
   6185    6183    6205 1       1.03090000e+02    5.20322240e+02
   6185    6187    6188 1       1.20640000e+02    5.08439680e+02
   6185    6187    6196 1       1.20640000e+02    5.08439680e+02
   6185    6201    6188 1       1.16810000e+02    4.91368960e+02
   6185    6201    6202 1       1.14760000e+02    3.49364000e+02
   6185    6201    6203 1       1.22490000e+02    4.75804480e+02
   6186    6185    6187 1       1.14530000e+02    3.58485120e+02
   6186    6185    6201 1       1.14760000e+02    3.49364000e+02
   6187    6185    6201 1       1.16810000e+02    4.91368960e+02
   6187    6188    6189 1       1.20020000e+02    5.32790560e+02
   6187    6188    6201 1       1.20640000e+02    5.08439680e+02
   6187    6196    6195 1       1.20020000e+02    5.32790560e+02
   6187    6196    6197 1       1.20830000e+02    5.08272320e+02
   6188    6187    6196 1       1.20020000e+02    5.32790560e+02
   6188    6189    6190 1       1.20830000e+02    5.08272320e+02
   6188    6189    6194 1       1.20020000e+02    5.32790560e+02
   6188    6201    6202 1       1.14530000e+02    3.58485120e+02
   6188    6201    6203 1       1.24830000e+02    4.77729120e+02
   6189    6188    6201 1       1.20640000e+02    5.08439680e+02
   6189    6190    6191 1       1.10630000e+02    3.64928480e+02
   6189    6190    6192 1       1.10630000e+02    3.64928480e+02
   6189    6190    6193 1       1.10630000e+02    3.64928480e+02
   6189    6194     849 1       1.20640000e+02    5.08439680e+02
   6189    6194    6195 1       1.20020000e+02    5.32790560e+02
   6190    6189    6194 1       1.20830000e+02    5.08272320e+02
   6191    6190    6192 1       1.07730000e+02    2.99574400e+02
   6191    6190    6193 1       1.07730000e+02    2.99574400e+02
   6192    6190    6193 1       1.07730000e+02    2.99574400e+02
   6194     849     850 1       1.14530000e+02    3.58485120e+02
   6194     849     851 1       1.16810000e+02    4.91368960e+02
   6194    6195     851 1       1.20640000e+02    5.08439680e+02
   6194    6195    6196 1       1.20020000e+02    5.32790560e+02
   6195     851     849 1       1.16810000e+02    4.91368960e+02
   6195     851     852 1       1.14530000e+02    3.58485120e+02
   6195    6194     849 1       1.20640000e+02    5.08439680e+02
   6196    6195     851 1       1.20640000e+02    5.08439680e+02
   6196    6197    6198 1       1.10630000e+02    3.64928480e+02
   6196    6197    6199 1       1.10630000e+02    3.64928480e+02
   6196    6197    6200 1       1.10630000e+02    3.64928480e+02
   6197    6196    6195 1       1.20830000e+02    5.08272320e+02
   6198    6197    6199 1       1.07730000e+02    2.99574400e+02
   6198    6197    6200 1       1.07730000e+02    2.99574400e+02
   6199    6197    6200 1       1.07730000e+02    2.99574400e+02
   6201    6203    6204 1       1.12000000e+02    3.56811520e+02
   6201    6203    6205 1       1.03090000e+02    5.20322240e+02
   6202    6201    6203 1       1.13690000e+02    3.54217440e+02
   6203    6205    6206 1       1.11170000e+02    3.56895200e+02
   6203    6205    6207 1       1.11170000e+02    3.56895200e+02
   6204    6203    6205 1       1.11170000e+02    3.56895200e+02
   6206    6205    6207 1       1.07220000e+02    3.00494880e+02
   6208    6209    6210 1       1.19880000e+02    3.75723200e+02
   6211    6215    6216 1       1.10280000e+02    5.05761920e+02
   6211    6215    6220 1       1.13070000e+02    5.03000480e+02
   6211    6215    6244 1       1.13070000e+02    5.03000480e+02
   6212    6211    6213 1       1.07730000e+02    2.99574400e+02
   6212    6211    6214 1       1.07730000e+02    2.99574400e+02
   6212    6211    6215 1       1.10530000e+02    3.60326080e+02
   6213    6211    6214 1       1.07730000e+02    2.99574400e+02
   6213    6211    6215 1       1.10530000e+02    3.60326080e+02
   6214    6211    6215 1       1.10530000e+02    3.60326080e+02
   6215    6216    6217 1       1.10530000e+02    3.60326080e+02
   6215    6216    6218 1       1.10530000e+02    3.60326080e+02
   6215    6216    6219 1       1.10530000e+02    3.60326080e+02
   6215    6220    6221 1       1.10210000e+02    5.31033280e+02
   6215    6220    6241 1       1.21870000e+02    5.06012960e+02
   6215    6244    6243 1       1.10210000e+02    5.31033280e+02
   6215    6244    6245 1       1.21870000e+02    5.06012960e+02
   6216    6215    6220 1       1.13070000e+02    5.03000480e+02
   6216    6215    6244 1       1.13070000e+02    5.03000480e+02
   6217    6216    6218 1       1.07730000e+02    2.99574400e+02
   6217    6216    6219 1       1.07730000e+02    2.99574400e+02
   6218    6216    6219 1       1.07730000e+02    2.99574400e+02
   6220    6215    6244 1       1.12520000e+02    5.08021280e+02
   6220    6221    6222 1       1.18410000e+02    5.33794720e+02
   6220    6221    6243 1       1.21100000e+02    5.12958400e+02
   6220    6241    6240 1       1.20020000e+02    5.32790560e+02
   6220    6241    6242 1       1.19880000e+02    3.75723200e+02
   6221    6220    6241 1       1.20730000e+02    5.29945440e+02
   6221    6222    6223 1       1.19820000e+02    3.74300640e+02
   6221    6222    6224 1       1.20730000e+02    5.29945440e+02
   6221    6243    6244 1       1.21100000e+02    5.12958400e+02
   6221    6243    6278 1       1.21100000e+02    5.12958400e+02
   6222    6221    6243 1       1.21100000e+02    5.12958400e+02
   6222    6224    6225 1       1.20640000e+02    5.08439680e+02
   6222    6224    6240 1       1.20020000e+02    5.32790560e+02
   6223    6222    6224 1       1.19880000e+02    3.75723200e+02
   6224    6225    6226 1       1.14530000e+02    3.58485120e+02
   6224    6225    6227 1       1.16810000e+02    4.91368960e+02
   6224    6225    6235 1       1.24830000e+02    4.77729120e+02
   6224    6240    6227 1       1.20640000e+02    5.08439680e+02
   6224    6240    6241 1       1.20020000e+02    5.32790560e+02
   6225    6224    6240 1       1.20640000e+02    5.08439680e+02
   6225    6227    6228 1       1.14760000e+02    3.49364000e+02
   6225    6227    6229 1       1.22490000e+02    4.75804480e+02
   6225    6227    6240 1       1.16810000e+02    4.91368960e+02
   6225    6235    6233 1       9.60300000e+01    5.40070720e+02
   6225    6235    6236 1       1.12000000e+02    3.56811520e+02
   6225    6235    6237 1       1.03090000e+02    5.20322240e+02
   6226    6225    6227 1       1.14760000e+02    3.49364000e+02
   6226    6225    6235 1       1.13690000e+02    3.54217440e+02
   6227    6225    6235 1       1.22490000e+02    4.75804480e+02
   6227    6229    6230 1       1.12000000e+02    3.56811520e+02
   6227    6229    6231 1       9.60300000e+01    5.40070720e+02
   6227    6229    6237 1       1.03090000e+02    5.20322240e+02
   6227    6240    6241 1       1.20640000e+02    5.08439680e+02
   6228    6227    6229 1       1.13690000e+02    3.54217440e+02
   6228    6227    6240 1       1.14530000e+02    3.58485120e+02
   6229    6227    6240 1       1.24830000e+02    4.77729120e+02
   6229    6231    1503 1       1.24830000e+02    4.77729120e+02
   6229    6231    6232 1       1.13690000e+02    3.54217440e+02
   6229    6231    6233 1       1.22490000e+02    4.75804480e+02
   6229    6237    6235 1       1.03830000e+02    5.17477120e+02
   6229    6237    6238 1       1.11170000e+02    3.56895200e+02
   6229    6237    6239 1       1.11170000e+02    3.56895200e+02
   6230    6229    6237 1       1.11170000e+02    3.56895200e+02
   6231    6229    6230 1       1.12000000e+02    3.56811520e+02
   6231    6233    6234 1       1.14760000e+02    3.49364000e+02
   6233    6231    6232 1       1.14760000e+02    3.49364000e+02
   6233    6235    6236 1       1.12000000e+02    3.56811520e+02
   6235    6233    1502 1       1.24830000e+02    4.77729120e+02
   6235    6233    6231 1       1.22490000e+02    4.75804480e+02
   6235    6233    6234 1       1.13690000e+02    3.54217440e+02
   6235    6237    6238 1       1.11170000e+02    3.56895200e+02
   6235    6237    6239 1       1.11170000e+02    3.56895200e+02
   6236    6235    6237 1       1.11170000e+02    3.56895200e+02
   6237    6229    6231 1       1.03090000e+02    5.20322240e+02
   6237    6235    6233 1       1.03090000e+02    5.20322240e+02
   6238    6237    6239 1       1.07220000e+02    3.00494880e+02
   6240    6241    6242 1       1.19880000e+02    3.75723200e+02
   6243    6244    6245 1       1.20730000e+02    5.29945440e+02
   6243    6278    6277 1       1.20730000e+02    5.29945440e+02
   6243    6278    6279 1       1.19820000e+02    3.74300640e+02
   6244    6243    6278 1       1.18410000e+02    5.33794720e+02
   6244    6245    6246 1       1.19880000e+02    3.75723200e+02
   6244    6245    6247 1       1.20020000e+02    5.32790560e+02
   6245    6247    6248 1       1.20640000e+02    5.08439680e+02
   6245    6247    6277 1       1.20020000e+02    5.32790560e+02
   6246    6245    6247 1       1.19880000e+02    3.75723200e+02
   6247    6248    6249 1       1.14530000e+02    3.58485120e+02
   6247    6248    6250 1       1.16810000e+02    4.91368960e+02
   6247    6248    6272 1       1.24830000e+02    4.77729120e+02
   6247    6277    6250 1       1.20640000e+02    5.08439680e+02
   6247    6277    6278 1       1.20020000e+02    5.32790560e+02
   6248    6247    6277 1       1.20640000e+02    5.08439680e+02
   6248    6250    6251 1       1.14760000e+02    3.49364000e+02
   6248    6250    6252 1       1.22490000e+02    4.75804480e+02
   6248    6250    6277 1       1.16810000e+02    4.91368960e+02
   6248    6272    6270 1       9.60300000e+01    5.40070720e+02
   6248    6272    6273 1       1.12000000e+02    3.56811520e+02
   6248    6272    6274 1       1.03090000e+02    5.20322240e+02
   6249    6248    6250 1       1.14760000e+02    3.49364000e+02
   6249    6248    6272 1       1.13690000e+02    3.54217440e+02
   6250    6248    6272 1       1.22490000e+02    4.75804480e+02
   6250    6252    6253 1       1.12000000e+02    3.56811520e+02
   6250    6252    6254 1       9.60300000e+01    5.40070720e+02
   6250    6252    6274 1       1.03090000e+02    5.20322240e+02
   6250    6277    6278 1       1.20640000e+02    5.08439680e+02
   6251    6250    6252 1       1.13690000e+02    3.54217440e+02
   6251    6250    6277 1       1.14530000e+02    3.58485120e+02
   6252    6250    6277 1       1.24830000e+02    4.77729120e+02
   6252    6254    6255 1       1.13690000e+02    3.54217440e+02
   6252    6254    6256 1       1.24830000e+02    4.77729120e+02
   6252    6254    6270 1       1.22490000e+02    4.75804480e+02
   6252    6274    6272 1       1.03830000e+02    5.17477120e+02
   6252    6274    6275 1       1.11170000e+02    3.56895200e+02
   6252    6274    6276 1       1.11170000e+02    3.56895200e+02
   6253    6252    6254 1       1.12000000e+02    3.56811520e+02
   6253    6252    6274 1       1.11170000e+02    3.56895200e+02
   6254    6252    6274 1       1.03090000e+02    5.20322240e+02
   6254    6256    6257 1       1.20640000e+02    5.08439680e+02
   6254    6256    6265 1       1.20640000e+02    5.08439680e+02
   6254    6270    6257 1       1.16810000e+02    4.91368960e+02
   6254    6270    6271 1       1.14760000e+02    3.49364000e+02
   6254    6270    6272 1       1.22490000e+02    4.75804480e+02
   6255    6254    6256 1       1.14530000e+02    3.58485120e+02
   6255    6254    6270 1       1.14760000e+02    3.49364000e+02
   6256    6254    6270 1       1.16810000e+02    4.91368960e+02
   6256    6257    6258 1       1.20020000e+02    5.32790560e+02
   6256    6257    6270 1       1.20640000e+02    5.08439680e+02
   6256    6265    6264 1       1.20020000e+02    5.32790560e+02
   6256    6265    6266 1       1.20830000e+02    5.08272320e+02
   6257    6256    6265 1       1.20020000e+02    5.32790560e+02
   6257    6258    6259 1       1.20830000e+02    5.08272320e+02
   6257    6258    6263 1       1.20020000e+02    5.32790560e+02
   6257    6270    6271 1       1.14530000e+02    3.58485120e+02
   6257    6270    6272 1       1.24830000e+02    4.77729120e+02
   6258    6257    6270 1       1.20640000e+02    5.08439680e+02
   6258    6259    6260 1       1.10630000e+02    3.64928480e+02
   6258    6259    6261 1       1.10630000e+02    3.64928480e+02
   6258    6259    6262 1       1.10630000e+02    3.64928480e+02
   6258    6263    4646 1       1.20640000e+02    5.08439680e+02
   6258    6263    6264 1       1.20020000e+02    5.32790560e+02
   6259    6258    6263 1       1.20830000e+02    5.08272320e+02
   6260    6259    6261 1       1.07730000e+02    2.99574400e+02
   6260    6259    6262 1       1.07730000e+02    2.99574400e+02
   6261    6259    6262 1       1.07730000e+02    2.99574400e+02
   6263    4646    4644 1       1.16810000e+02    4.91368960e+02
   6263    4646    4647 1       1.14530000e+02    3.58485120e+02
   6263    6264    4644 1       1.20640000e+02    5.08439680e+02
   6263    6264    6265 1       1.20020000e+02    5.32790560e+02
   6264    4644    4645 1       1.14530000e+02    3.58485120e+02
   6264    4644    4646 1       1.16810000e+02    4.91368960e+02
   6264    6263    4646 1       1.20640000e+02    5.08439680e+02
   6265    6264    4644 1       1.20640000e+02    5.08439680e+02
   6265    6266    6267 1       1.10630000e+02    3.64928480e+02
   6265    6266    6268 1       1.10630000e+02    3.64928480e+02
   6265    6266    6269 1       1.10630000e+02    3.64928480e+02
   6266    6265    6264 1       1.20830000e+02    5.08272320e+02
   6267    6266    6268 1       1.07730000e+02    2.99574400e+02
   6267    6266    6269 1       1.07730000e+02    2.99574400e+02
   6268    6266    6269 1       1.07730000e+02    2.99574400e+02
   6270    6272    6273 1       1.12000000e+02    3.56811520e+02
   6270    6272    6274 1       1.03090000e+02    5.20322240e+02
   6271    6270    6272 1       1.13690000e+02    3.54217440e+02
   6272    6274    6275 1       1.11170000e+02    3.56895200e+02
   6272    6274    6276 1       1.11170000e+02    3.56895200e+02
   6273    6272    6274 1       1.11170000e+02    3.56895200e+02
   6275    6274    6276 1       1.07220000e+02    3.00494880e+02
   6277    6278    6279 1       1.19880000e+02    3.75723200e+02
   6280    6284    6285 1       1.10280000e+02    5.05761920e+02
   6280    6284    6289 1       1.13070000e+02    5.03000480e+02
   6280    6284    6313 1       1.13070000e+02    5.03000480e+02
   6281    6280    6282 1       1.07730000e+02    2.99574400e+02
   6281    6280    6283 1       1.07730000e+02    2.99574400e+02
   6281    6280    6284 1       1.10530000e+02    3.60326080e+02
   6282    6280    6283 1       1.07730000e+02    2.99574400e+02
   6282    6280    6284 1       1.10530000e+02    3.60326080e+02
   6283    6280    6284 1       1.10530000e+02    3.60326080e+02
   6284    6285    6286 1       1.10530000e+02    3.60326080e+02
   6284    6285    6287 1       1.10530000e+02    3.60326080e+02
   6284    6285    6288 1       1.10530000e+02    3.60326080e+02
   6284    6289    6290 1       1.10210000e+02    5.31033280e+02
   6284    6289    6310 1       1.21870000e+02    5.06012960e+02
   6284    6313    6312 1       1.10210000e+02    5.31033280e+02
   6284    6313    6314 1       1.21870000e+02    5.06012960e+02
   6285    6284    6289 1       1.13070000e+02    5.03000480e+02
   6285    6284    6313 1       1.13070000e+02    5.03000480e+02
   6286    6285    6287 1       1.07730000e+02    2.99574400e+02
   6286    6285    6288 1       1.07730000e+02    2.99574400e+02
   6287    6285    6288 1       1.07730000e+02    2.99574400e+02
   6289    6284    6313 1       1.12520000e+02    5.08021280e+02
   6289    6290    6291 1       1.18410000e+02    5.33794720e+02
   6289    6290    6312 1       1.21100000e+02    5.12958400e+02
   6289    6310    6309 1       1.20020000e+02    5.32790560e+02
   6289    6310    6311 1       1.19880000e+02    3.75723200e+02
   6290    6289    6310 1       1.20730000e+02    5.29945440e+02
   6290    6291    6292 1       1.19820000e+02    3.74300640e+02
   6290    6291    6293 1       1.20730000e+02    5.29945440e+02
   6290    6312    6313 1       1.21100000e+02    5.12958400e+02
   6290    6312    6347 1       1.21100000e+02    5.12958400e+02
   6291    6290    6312 1       1.21100000e+02    5.12958400e+02
   6291    6293    6294 1       1.20640000e+02    5.08439680e+02
   6291    6293    6309 1       1.20020000e+02    5.32790560e+02
   6292    6291    6293 1       1.19880000e+02    3.75723200e+02
   6293    6294    6295 1       1.14530000e+02    3.58485120e+02
   6293    6294    6296 1       1.16810000e+02    4.91368960e+02
   6293    6294    6304 1       1.24830000e+02    4.77729120e+02
   6293    6309    6296 1       1.20640000e+02    5.08439680e+02
   6293    6309    6310 1       1.20020000e+02    5.32790560e+02
   6294    6293    6309 1       1.20640000e+02    5.08439680e+02
   6294    6296    6297 1       1.14760000e+02    3.49364000e+02
   6294    6296    6298 1       1.22490000e+02    4.75804480e+02
   6294    6296    6309 1       1.16810000e+02    4.91368960e+02
   6294    6304    6302 1       9.60300000e+01    5.40070720e+02
   6294    6304    6305 1       1.12000000e+02    3.56811520e+02
   6294    6304    6306 1       1.03090000e+02    5.20322240e+02
   6295    6294    6296 1       1.14760000e+02    3.49364000e+02
   6295    6294    6304 1       1.13690000e+02    3.54217440e+02
   6296    6294    6304 1       1.22490000e+02    4.75804480e+02
   6296    6298    6299 1       1.12000000e+02    3.56811520e+02
   6296    6298    6300 1       9.60300000e+01    5.40070720e+02
   6296    6298    6306 1       1.03090000e+02    5.20322240e+02
   6296    6309    6310 1       1.20640000e+02    5.08439680e+02
   6297    6296    6298 1       1.13690000e+02    3.54217440e+02
   6297    6296    6309 1       1.14530000e+02    3.58485120e+02
   6298    6296    6309 1       1.24830000e+02    4.77729120e+02
   6298    6300    3849 1       1.24830000e+02    4.77729120e+02
   6298    6300    6301 1       1.13690000e+02    3.54217440e+02
   6298    6300    6302 1       1.22490000e+02    4.75804480e+02
   6298    6306    6304 1       1.03830000e+02    5.17477120e+02
   6298    6306    6307 1       1.11170000e+02    3.56895200e+02
   6298    6306    6308 1       1.11170000e+02    3.56895200e+02
   6299    6298    6306 1       1.11170000e+02    3.56895200e+02
   6300    6298    6299 1       1.12000000e+02    3.56811520e+02
   6300    6302    6303 1       1.14760000e+02    3.49364000e+02
   6302    6300    6301 1       1.14760000e+02    3.49364000e+02
   6302    6304    6305 1       1.12000000e+02    3.56811520e+02
   6304    6302    3848 1       1.24830000e+02    4.77729120e+02
   6304    6302    6300 1       1.22490000e+02    4.75804480e+02
   6304    6302    6303 1       1.13690000e+02    3.54217440e+02
   6304    6306    6307 1       1.11170000e+02    3.56895200e+02
   6304    6306    6308 1       1.11170000e+02    3.56895200e+02
   6305    6304    6306 1       1.11170000e+02    3.56895200e+02
   6306    6298    6300 1       1.03090000e+02    5.20322240e+02
   6306    6304    6302 1       1.03090000e+02    5.20322240e+02
   6307    6306    6308 1       1.07220000e+02    3.00494880e+02
   6309    6310    6311 1       1.19880000e+02    3.75723200e+02
   6312    6313    6314 1       1.20730000e+02    5.29945440e+02
   6312    6347    6346 1       1.20730000e+02    5.29945440e+02
   6312    6347    6348 1       1.19820000e+02    3.74300640e+02
   6313    6312    6347 1       1.18410000e+02    5.33794720e+02
   6313    6314    6315 1       1.19880000e+02    3.75723200e+02
   6313    6314    6316 1       1.20020000e+02    5.32790560e+02
   6314    6316    6317 1       1.20640000e+02    5.08439680e+02
   6314    6316    6346 1       1.20020000e+02    5.32790560e+02
   6315    6314    6316 1       1.19880000e+02    3.75723200e+02
   6316    6317    6318 1       1.14530000e+02    3.58485120e+02
   6316    6317    6319 1       1.16810000e+02    4.91368960e+02
   6316    6317    6341 1       1.24830000e+02    4.77729120e+02
   6316    6346    6319 1       1.20640000e+02    5.08439680e+02
   6316    6346    6347 1       1.20020000e+02    5.32790560e+02
   6317    6316    6346 1       1.20640000e+02    5.08439680e+02
   6317    6319    6320 1       1.14760000e+02    3.49364000e+02
   6317    6319    6321 1       1.22490000e+02    4.75804480e+02
   6317    6319    6346 1       1.16810000e+02    4.91368960e+02
   6317    6341    6339 1       9.60300000e+01    5.40070720e+02
   6317    6341    6342 1       1.12000000e+02    3.56811520e+02
   6317    6341    6343 1       1.03090000e+02    5.20322240e+02
   6318    6317    6319 1       1.14760000e+02    3.49364000e+02
   6318    6317    6341 1       1.13690000e+02    3.54217440e+02
   6319    6317    6341 1       1.22490000e+02    4.75804480e+02
   6319    6321    6322 1       1.12000000e+02    3.56811520e+02
   6319    6321    6323 1       9.60300000e+01    5.40070720e+02
   6319    6321    6343 1       1.03090000e+02    5.20322240e+02
   6319    6346    6347 1       1.20640000e+02    5.08439680e+02
   6320    6319    6321 1       1.13690000e+02    3.54217440e+02
   6320    6319    6346 1       1.14530000e+02    3.58485120e+02
   6321    6319    6346 1       1.24830000e+02    4.77729120e+02
   6321    6323    6324 1       1.13690000e+02    3.54217440e+02
   6321    6323    6325 1       1.24830000e+02    4.77729120e+02
   6321    6323    6339 1       1.22490000e+02    4.75804480e+02
   6321    6343    6341 1       1.03830000e+02    5.17477120e+02
   6321    6343    6344 1       1.11170000e+02    3.56895200e+02
   6321    6343    6345 1       1.11170000e+02    3.56895200e+02
   6322    6321    6323 1       1.12000000e+02    3.56811520e+02
   6322    6321    6343 1       1.11170000e+02    3.56895200e+02
   6323    6321    6343 1       1.03090000e+02    5.20322240e+02
   6323    6325    6326 1       1.20640000e+02    5.08439680e+02
   6323    6325    6334 1       1.20640000e+02    5.08439680e+02
   6323    6339    6326 1       1.16810000e+02    4.91368960e+02
   6323    6339    6340 1       1.14760000e+02    3.49364000e+02
   6323    6339    6341 1       1.22490000e+02    4.75804480e+02
   6324    6323    6325 1       1.14530000e+02    3.58485120e+02
   6324    6323    6339 1       1.14760000e+02    3.49364000e+02
   6325    6323    6339 1       1.16810000e+02    4.91368960e+02
   6325    6326    6327 1       1.20020000e+02    5.32790560e+02
   6325    6326    6339 1       1.20640000e+02    5.08439680e+02
   6325    6334    6333 1       1.20020000e+02    5.32790560e+02
   6325    6334    6335 1       1.20830000e+02    5.08272320e+02
   6326    6325    6334 1       1.20020000e+02    5.32790560e+02
   6326    6327    6328 1       1.20830000e+02    5.08272320e+02
   6326    6327    6332 1       1.20020000e+02    5.32790560e+02
   6326    6339    6340 1       1.14530000e+02    3.58485120e+02
   6326    6339    6341 1       1.24830000e+02    4.77729120e+02
   6327    6326    6339 1       1.20640000e+02    5.08439680e+02
   6327    6328    6329 1       1.10630000e+02    3.64928480e+02
   6327    6328    6330 1       1.10630000e+02    3.64928480e+02
   6327    6328    6331 1       1.10630000e+02    3.64928480e+02
   6327    6332    3887 1       1.20640000e+02    5.08439680e+02
   6327    6332    6333 1       1.20020000e+02    5.32790560e+02
   6328    6327    6332 1       1.20830000e+02    5.08272320e+02
   6329    6328    6330 1       1.07730000e+02    2.99574400e+02
   6329    6328    6331 1       1.07730000e+02    2.99574400e+02
   6330    6328    6331 1       1.07730000e+02    2.99574400e+02
   6332    3887    3885 1       1.16810000e+02    4.91368960e+02
   6332    3887    3888 1       1.14530000e+02    3.58485120e+02
   6332    6333    3885 1       1.20640000e+02    5.08439680e+02
   6332    6333    6334 1       1.20020000e+02    5.32790560e+02
   6333    3885    3886 1       1.14530000e+02    3.58485120e+02
   6333    3885    3887 1       1.16810000e+02    4.91368960e+02
   6333    6332    3887 1       1.20640000e+02    5.08439680e+02
   6334    6333    3885 1       1.20640000e+02    5.08439680e+02
   6334    6335    6336 1       1.10630000e+02    3.64928480e+02
   6334    6335    6337 1       1.10630000e+02    3.64928480e+02
   6334    6335    6338 1       1.10630000e+02    3.64928480e+02
   6335    6334    6333 1       1.20830000e+02    5.08272320e+02
   6336    6335    6337 1       1.07730000e+02    2.99574400e+02
   6336    6335    6338 1       1.07730000e+02    2.99574400e+02
   6337    6335    6338 1       1.07730000e+02    2.99574400e+02
   6339    6341    6342 1       1.12000000e+02    3.56811520e+02
   6339    6341    6343 1       1.03090000e+02    5.20322240e+02
   6340    6339    6341 1       1.13690000e+02    3.54217440e+02
   6341    6343    6344 1       1.11170000e+02    3.56895200e+02
   6341    6343    6345 1       1.11170000e+02    3.56895200e+02
   6342    6341    6343 1       1.11170000e+02    3.56895200e+02
   6344    6343    6345 1       1.07220000e+02    3.00494880e+02
   6346    6347    6348 1       1.19880000e+02    3.75723200e+02
   6349    6353    6354 1       1.10280000e+02    5.05761920e+02
   6349    6353    6358 1       1.13070000e+02    5.03000480e+02
   6349    6353    6382 1       1.13070000e+02    5.03000480e+02
   6350    6349    6351 1       1.07730000e+02    2.99574400e+02
   6350    6349    6352 1       1.07730000e+02    2.99574400e+02
   6350    6349    6353 1       1.10530000e+02    3.60326080e+02
   6351    6349    6352 1       1.07730000e+02    2.99574400e+02
   6351    6349    6353 1       1.10530000e+02    3.60326080e+02
   6352    6349    6353 1       1.10530000e+02    3.60326080e+02
   6353    6354    6355 1       1.10530000e+02    3.60326080e+02
   6353    6354    6356 1       1.10530000e+02    3.60326080e+02
   6353    6354    6357 1       1.10530000e+02    3.60326080e+02
   6353    6358    6359 1       1.10210000e+02    5.31033280e+02
   6353    6358    6379 1       1.21870000e+02    5.06012960e+02
   6353    6382    6381 1       1.10210000e+02    5.31033280e+02
   6353    6382    6383 1       1.21870000e+02    5.06012960e+02
   6354    6353    6358 1       1.13070000e+02    5.03000480e+02
   6354    6353    6382 1       1.13070000e+02    5.03000480e+02
   6355    6354    6356 1       1.07730000e+02    2.99574400e+02
   6355    6354    6357 1       1.07730000e+02    2.99574400e+02
   6356    6354    6357 1       1.07730000e+02    2.99574400e+02
   6358    6353    6382 1       1.12520000e+02    5.08021280e+02
   6358    6359    6360 1       1.18410000e+02    5.33794720e+02
   6358    6359    6381 1       1.21100000e+02    5.12958400e+02
   6358    6379    6378 1       1.20020000e+02    5.32790560e+02
   6358    6379    6380 1       1.19880000e+02    3.75723200e+02
   6359    6358    6379 1       1.20730000e+02    5.29945440e+02
   6359    6360    6361 1       1.19820000e+02    3.74300640e+02
   6359    6360    6362 1       1.20730000e+02    5.29945440e+02
   6359    6381    6382 1       1.21100000e+02    5.12958400e+02
   6359    6381    6416 1       1.21100000e+02    5.12958400e+02
   6360    6359    6381 1       1.21100000e+02    5.12958400e+02
   6360    6362    6363 1       1.20640000e+02    5.08439680e+02
   6360    6362    6378 1       1.20020000e+02    5.32790560e+02
   6361    6360    6362 1       1.19880000e+02    3.75723200e+02
   6362    6363    6364 1       1.14530000e+02    3.58485120e+02
   6362    6363    6365 1       1.16810000e+02    4.91368960e+02
   6362    6363    6373 1       1.24830000e+02    4.77729120e+02
   6362    6378    6365 1       1.20640000e+02    5.08439680e+02
   6362    6378    6379 1       1.20020000e+02    5.32790560e+02
   6363    6362    6378 1       1.20640000e+02    5.08439680e+02
   6363    6365    6366 1       1.14760000e+02    3.49364000e+02
   6363    6365    6367 1       1.22490000e+02    4.75804480e+02
   6363    6365    6378 1       1.16810000e+02    4.91368960e+02
   6363    6373    6371 1       9.60300000e+01    5.40070720e+02
   6363    6373    6374 1       1.12000000e+02    3.56811520e+02
   6363    6373    6375 1       1.03090000e+02    5.20322240e+02
   6364    6363    6365 1       1.14760000e+02    3.49364000e+02
   6364    6363    6373 1       1.13690000e+02    3.54217440e+02
   6365    6363    6373 1       1.22490000e+02    4.75804480e+02
   6365    6367    6368 1       1.12000000e+02    3.56811520e+02
   6365    6367    6369 1       9.60300000e+01    5.40070720e+02
   6365    6367    6375 1       1.03090000e+02    5.20322240e+02
   6365    6378    6379 1       1.20640000e+02    5.08439680e+02
   6366    6365    6367 1       1.13690000e+02    3.54217440e+02
   6366    6365    6378 1       1.14530000e+02    3.58485120e+02
   6367    6365    6378 1       1.24830000e+02    4.77729120e+02
   6367    6369     537 1       1.24830000e+02    4.77729120e+02
   6367    6369    6370 1       1.13690000e+02    3.54217440e+02
   6367    6369    6371 1       1.22490000e+02    4.75804480e+02
   6367    6375    6373 1       1.03830000e+02    5.17477120e+02
   6367    6375    6376 1       1.11170000e+02    3.56895200e+02
   6367    6375    6377 1       1.11170000e+02    3.56895200e+02
   6368    6367    6375 1       1.11170000e+02    3.56895200e+02
   6369    6367    6368 1       1.12000000e+02    3.56811520e+02
   6369    6371    6372 1       1.14760000e+02    3.49364000e+02
   6371    6369    6370 1       1.14760000e+02    3.49364000e+02
   6371    6373    6374 1       1.12000000e+02    3.56811520e+02
   6373    6371     536 1       1.24830000e+02    4.77729120e+02
   6373    6371    6369 1       1.22490000e+02    4.75804480e+02
   6373    6371    6372 1       1.13690000e+02    3.54217440e+02
   6373    6375    6376 1       1.11170000e+02    3.56895200e+02
   6373    6375    6377 1       1.11170000e+02    3.56895200e+02
   6374    6373    6375 1       1.11170000e+02    3.56895200e+02
   6375    6367    6369 1       1.03090000e+02    5.20322240e+02
   6375    6373    6371 1       1.03090000e+02    5.20322240e+02
   6376    6375    6377 1       1.07220000e+02    3.00494880e+02
   6378    6379    6380 1       1.19880000e+02    3.75723200e+02
   6381    6382    6383 1       1.20730000e+02    5.29945440e+02
   6381    6416    6415 1       1.20730000e+02    5.29945440e+02
   6381    6416    6417 1       1.19820000e+02    3.74300640e+02
   6382    6381    6416 1       1.18410000e+02    5.33794720e+02
   6382    6383    6384 1       1.19880000e+02    3.75723200e+02
   6382    6383    6385 1       1.20020000e+02    5.32790560e+02
   6383    6385    6386 1       1.20640000e+02    5.08439680e+02
   6383    6385    6415 1       1.20020000e+02    5.32790560e+02
   6384    6383    6385 1       1.19880000e+02    3.75723200e+02
   6385    6386    6387 1       1.14530000e+02    3.58485120e+02
   6385    6386    6388 1       1.16810000e+02    4.91368960e+02
   6385    6386    6410 1       1.24830000e+02    4.77729120e+02
   6385    6415    6388 1       1.20640000e+02    5.08439680e+02
   6385    6415    6416 1       1.20020000e+02    5.32790560e+02
   6386    6385    6415 1       1.20640000e+02    5.08439680e+02
   6386    6388    6389 1       1.14760000e+02    3.49364000e+02
   6386    6388    6390 1       1.22490000e+02    4.75804480e+02
   6386    6388    6415 1       1.16810000e+02    4.91368960e+02
   6386    6410    6408 1       9.60300000e+01    5.40070720e+02
   6386    6410    6411 1       1.12000000e+02    3.56811520e+02
   6386    6410    6412 1       1.03090000e+02    5.20322240e+02
   6387    6386    6388 1       1.14760000e+02    3.49364000e+02
   6387    6386    6410 1       1.13690000e+02    3.54217440e+02
   6388    6386    6410 1       1.22490000e+02    4.75804480e+02
   6388    6390    6391 1       1.12000000e+02    3.56811520e+02
   6388    6390    6392 1       9.60300000e+01    5.40070720e+02
   6388    6390    6412 1       1.03090000e+02    5.20322240e+02
   6388    6415    6416 1       1.20640000e+02    5.08439680e+02
   6389    6388    6390 1       1.13690000e+02    3.54217440e+02
   6389    6388    6415 1       1.14530000e+02    3.58485120e+02
   6390    6388    6415 1       1.24830000e+02    4.77729120e+02
   6390    6392    6393 1       1.13690000e+02    3.54217440e+02
   6390    6392    6394 1       1.24830000e+02    4.77729120e+02
   6390    6392    6408 1       1.22490000e+02    4.75804480e+02
   6390    6412    6410 1       1.03830000e+02    5.17477120e+02
   6390    6412    6413 1       1.11170000e+02    3.56895200e+02
   6390    6412    6414 1       1.11170000e+02    3.56895200e+02
   6391    6390    6392 1       1.12000000e+02    3.56811520e+02
   6391    6390    6412 1       1.11170000e+02    3.56895200e+02
   6392    6390    6412 1       1.03090000e+02    5.20322240e+02
   6392    6394    6395 1       1.20640000e+02    5.08439680e+02
   6392    6394    6403 1       1.20640000e+02    5.08439680e+02
   6392    6408    6395 1       1.16810000e+02    4.91368960e+02
   6392    6408    6409 1       1.14760000e+02    3.49364000e+02
   6392    6408    6410 1       1.22490000e+02    4.75804480e+02
   6393    6392    6394 1       1.14530000e+02    3.58485120e+02
   6393    6392    6408 1       1.14760000e+02    3.49364000e+02
   6394    6392    6408 1       1.16810000e+02    4.91368960e+02
   6394    6395    6396 1       1.20020000e+02    5.32790560e+02
   6394    6395    6408 1       1.20640000e+02    5.08439680e+02
   6394    6403    6402 1       1.20020000e+02    5.32790560e+02
   6394    6403    6404 1       1.20830000e+02    5.08272320e+02
   6395    6394    6403 1       1.20020000e+02    5.32790560e+02
   6395    6396    6397 1       1.20830000e+02    5.08272320e+02
   6395    6396    6401 1       1.20020000e+02    5.32790560e+02
   6395    6408    6409 1       1.14530000e+02    3.58485120e+02
   6395    6408    6410 1       1.24830000e+02    4.77729120e+02
   6396    6395    6408 1       1.20640000e+02    5.08439680e+02
   6396    6397    6398 1       1.10630000e+02    3.64928480e+02
   6396    6397    6399 1       1.10630000e+02    3.64928480e+02
   6396    6397    6400 1       1.10630000e+02    3.64928480e+02
   6396    6401    4506 1       1.20640000e+02    5.08439680e+02
   6396    6401    6402 1       1.20020000e+02    5.32790560e+02
   6397    6396    6401 1       1.20830000e+02    5.08272320e+02
   6398    6397    6399 1       1.07730000e+02    2.99574400e+02
   6398    6397    6400 1       1.07730000e+02    2.99574400e+02
   6399    6397    6400 1       1.07730000e+02    2.99574400e+02
   6401    4506    4507 1       1.14530000e+02    3.58485120e+02
   6401    4506    4508 1       1.16810000e+02    4.91368960e+02
   6401    6402    4508 1       1.20640000e+02    5.08439680e+02
   6401    6402    6403 1       1.20020000e+02    5.32790560e+02
   6402    4508    4506 1       1.16810000e+02    4.91368960e+02
   6402    4508    4509 1       1.14530000e+02    3.58485120e+02
   6402    6401    4506 1       1.20640000e+02    5.08439680e+02
   6403    6402    4508 1       1.20640000e+02    5.08439680e+02
   6403    6404    6405 1       1.10630000e+02    3.64928480e+02
   6403    6404    6406 1       1.10630000e+02    3.64928480e+02
   6403    6404    6407 1       1.10630000e+02    3.64928480e+02
   6404    6403    6402 1       1.20830000e+02    5.08272320e+02
   6405    6404    6406 1       1.07730000e+02    2.99574400e+02
   6405    6404    6407 1       1.07730000e+02    2.99574400e+02
   6406    6404    6407 1       1.07730000e+02    2.99574400e+02
   6408    6410    6411 1       1.12000000e+02    3.56811520e+02
   6408    6410    6412 1       1.03090000e+02    5.20322240e+02
   6409    6408    6410 1       1.13690000e+02    3.54217440e+02
   6410    6412    6413 1       1.11170000e+02    3.56895200e+02
   6410    6412    6414 1       1.11170000e+02    3.56895200e+02
   6411    6410    6412 1       1.11170000e+02    3.56895200e+02
   6413    6412    6414 1       1.07220000e+02    3.00494880e+02
   6415    6416    6417 1       1.19880000e+02    3.75723200e+02
   6418    6422    6423 1       1.10280000e+02    5.05761920e+02
   6418    6422    6427 1       1.13070000e+02    5.03000480e+02
   6418    6422    6451 1       1.13070000e+02    5.03000480e+02
   6419    6418    6420 1       1.07730000e+02    2.99574400e+02
   6419    6418    6421 1       1.07730000e+02    2.99574400e+02
   6419    6418    6422 1       1.10530000e+02    3.60326080e+02
   6420    6418    6421 1       1.07730000e+02    2.99574400e+02
   6420    6418    6422 1       1.10530000e+02    3.60326080e+02
   6421    6418    6422 1       1.10530000e+02    3.60326080e+02
   6422    6423    6424 1       1.10530000e+02    3.60326080e+02
   6422    6423    6425 1       1.10530000e+02    3.60326080e+02
   6422    6423    6426 1       1.10530000e+02    3.60326080e+02
   6422    6427    6428 1       1.10210000e+02    5.31033280e+02
   6422    6427    6448 1       1.21870000e+02    5.06012960e+02
   6422    6451    6450 1       1.10210000e+02    5.31033280e+02
   6422    6451    6452 1       1.21870000e+02    5.06012960e+02
   6423    6422    6427 1       1.13070000e+02    5.03000480e+02
   6423    6422    6451 1       1.13070000e+02    5.03000480e+02
   6424    6423    6425 1       1.07730000e+02    2.99574400e+02
   6424    6423    6426 1       1.07730000e+02    2.99574400e+02
   6425    6423    6426 1       1.07730000e+02    2.99574400e+02
   6427    6422    6451 1       1.12520000e+02    5.08021280e+02
   6427    6428    6429 1       1.18410000e+02    5.33794720e+02
   6427    6428    6450 1       1.21100000e+02    5.12958400e+02
   6427    6448    6447 1       1.20020000e+02    5.32790560e+02
   6427    6448    6449 1       1.19880000e+02    3.75723200e+02
   6428    6427    6448 1       1.20730000e+02    5.29945440e+02
   6428    6429    6430 1       1.19820000e+02    3.74300640e+02
   6428    6429    6431 1       1.20730000e+02    5.29945440e+02
   6428    6450    6451 1       1.21100000e+02    5.12958400e+02
   6428    6450    6485 1       1.21100000e+02    5.12958400e+02
   6429    6428    6450 1       1.21100000e+02    5.12958400e+02
   6429    6431    6432 1       1.20640000e+02    5.08439680e+02
   6429    6431    6447 1       1.20020000e+02    5.32790560e+02
   6430    6429    6431 1       1.19880000e+02    3.75723200e+02
   6431    6432    6433 1       1.14530000e+02    3.58485120e+02
   6431    6432    6434 1       1.16810000e+02    4.91368960e+02
   6431    6432    6442 1       1.24830000e+02    4.77729120e+02
   6431    6447    6434 1       1.20640000e+02    5.08439680e+02
   6431    6447    6448 1       1.20020000e+02    5.32790560e+02
   6432    6431    6447 1       1.20640000e+02    5.08439680e+02
   6432    6434    6435 1       1.14760000e+02    3.49364000e+02
   6432    6434    6436 1       1.22490000e+02    4.75804480e+02
   6432    6434    6447 1       1.16810000e+02    4.91368960e+02
   6432    6442    6440 1       9.60300000e+01    5.40070720e+02
   6432    6442    6443 1       1.12000000e+02    3.56811520e+02
   6432    6442    6444 1       1.03090000e+02    5.20322240e+02
   6433    6432    6434 1       1.14760000e+02    3.49364000e+02
   6433    6432    6442 1       1.13690000e+02    3.54217440e+02
   6434    6432    6442 1       1.22490000e+02    4.75804480e+02
   6434    6436    6437 1       1.12000000e+02    3.56811520e+02
   6434    6436    6438 1       9.60300000e+01    5.40070720e+02
   6434    6436    6444 1       1.03090000e+02    5.20322240e+02
   6434    6447    6448 1       1.20640000e+02    5.08439680e+02
   6435    6434    6436 1       1.13690000e+02    3.54217440e+02
   6435    6434    6447 1       1.14530000e+02    3.58485120e+02
   6436    6434    6447 1       1.24830000e+02    4.77729120e+02
   6436    6438    4607 1       1.24830000e+02    4.77729120e+02
   6436    6438    6439 1       1.13690000e+02    3.54217440e+02
   6436    6438    6440 1       1.22490000e+02    4.75804480e+02
   6436    6444    6442 1       1.03830000e+02    5.17477120e+02
   6436    6444    6445 1       1.11170000e+02    3.56895200e+02
   6436    6444    6446 1       1.11170000e+02    3.56895200e+02
   6437    6436    6444 1       1.11170000e+02    3.56895200e+02
   6438    6436    6437 1       1.12000000e+02    3.56811520e+02
   6438    6440    6441 1       1.14760000e+02    3.49364000e+02
   6440    6438    6439 1       1.14760000e+02    3.49364000e+02
   6440    6442    6443 1       1.12000000e+02    3.56811520e+02
   6442    6440    4608 1       1.24830000e+02    4.77729120e+02
   6442    6440    6438 1       1.22490000e+02    4.75804480e+02
   6442    6440    6441 1       1.13690000e+02    3.54217440e+02
   6442    6444    6445 1       1.11170000e+02    3.56895200e+02
   6442    6444    6446 1       1.11170000e+02    3.56895200e+02
   6443    6442    6444 1       1.11170000e+02    3.56895200e+02
   6444    6436    6438 1       1.03090000e+02    5.20322240e+02
   6444    6442    6440 1       1.03090000e+02    5.20322240e+02
   6445    6444    6446 1       1.07220000e+02    3.00494880e+02
   6447    6448    6449 1       1.19880000e+02    3.75723200e+02
   6450    6451    6452 1       1.20730000e+02    5.29945440e+02
   6450    6485    6484 1       1.20730000e+02    5.29945440e+02
   6450    6485    6486 1       1.19820000e+02    3.74300640e+02
   6451    6450    6485 1       1.18410000e+02    5.33794720e+02
   6451    6452    6453 1       1.19880000e+02    3.75723200e+02
   6451    6452    6454 1       1.20020000e+02    5.32790560e+02
   6452    6454    6455 1       1.20640000e+02    5.08439680e+02
   6452    6454    6484 1       1.20020000e+02    5.32790560e+02
   6453    6452    6454 1       1.19880000e+02    3.75723200e+02
   6454    6455    6456 1       1.14530000e+02    3.58485120e+02
   6454    6455    6457 1       1.16810000e+02    4.91368960e+02
   6454    6455    6479 1       1.24830000e+02    4.77729120e+02
   6454    6484    6457 1       1.20640000e+02    5.08439680e+02
   6454    6484    6485 1       1.20020000e+02    5.32790560e+02
   6455    6454    6484 1       1.20640000e+02    5.08439680e+02
   6455    6457    6458 1       1.14760000e+02    3.49364000e+02
   6455    6457    6459 1       1.22490000e+02    4.75804480e+02
   6455    6457    6484 1       1.16810000e+02    4.91368960e+02
   6455    6479    6477 1       9.60300000e+01    5.40070720e+02
   6455    6479    6480 1       1.12000000e+02    3.56811520e+02
   6455    6479    6481 1       1.03090000e+02    5.20322240e+02
   6456    6455    6457 1       1.14760000e+02    3.49364000e+02
   6456    6455    6479 1       1.13690000e+02    3.54217440e+02
   6457    6455    6479 1       1.22490000e+02    4.75804480e+02
   6457    6459    6460 1       1.12000000e+02    3.56811520e+02
   6457    6459    6461 1       9.60300000e+01    5.40070720e+02
   6457    6459    6481 1       1.03090000e+02    5.20322240e+02
   6457    6484    6485 1       1.20640000e+02    5.08439680e+02
   6458    6457    6459 1       1.13690000e+02    3.54217440e+02
   6458    6457    6484 1       1.14530000e+02    3.58485120e+02
   6459    6457    6484 1       1.24830000e+02    4.77729120e+02
   6459    6461    6462 1       1.13690000e+02    3.54217440e+02
   6459    6461    6463 1       1.24830000e+02    4.77729120e+02
   6459    6461    6477 1       1.22490000e+02    4.75804480e+02
   6459    6481    6479 1       1.03830000e+02    5.17477120e+02
   6459    6481    6482 1       1.11170000e+02    3.56895200e+02
   6459    6481    6483 1       1.11170000e+02    3.56895200e+02
   6460    6459    6461 1       1.12000000e+02    3.56811520e+02
   6460    6459    6481 1       1.11170000e+02    3.56895200e+02
   6461    6459    6481 1       1.03090000e+02    5.20322240e+02
   6461    6463    6464 1       1.20640000e+02    5.08439680e+02
   6461    6463    6472 1       1.20640000e+02    5.08439680e+02
   6461    6477    6464 1       1.16810000e+02    4.91368960e+02
   6461    6477    6478 1       1.14760000e+02    3.49364000e+02
   6461    6477    6479 1       1.22490000e+02    4.75804480e+02
   6462    6461    6463 1       1.14530000e+02    3.58485120e+02
   6462    6461    6477 1       1.14760000e+02    3.49364000e+02
   6463    6461    6477 1       1.16810000e+02    4.91368960e+02
   6463    6464    6465 1       1.20020000e+02    5.32790560e+02
   6463    6464    6477 1       1.20640000e+02    5.08439680e+02
   6463    6472    6471 1       1.20020000e+02    5.32790560e+02
   6463    6472    6473 1       1.20830000e+02    5.08272320e+02
   6464    6463    6472 1       1.20020000e+02    5.32790560e+02
   6464    6465    6466 1       1.20830000e+02    5.08272320e+02
   6464    6465    6470 1       1.20020000e+02    5.32790560e+02
   6464    6477    6478 1       1.14530000e+02    3.58485120e+02
   6464    6477    6479 1       1.24830000e+02    4.77729120e+02
   6465    6464    6477 1       1.20640000e+02    5.08439680e+02
   6465    6466    6467 1       1.10630000e+02    3.64928480e+02
   6465    6466    6468 1       1.10630000e+02    3.64928480e+02
   6465    6466    6469 1       1.10630000e+02    3.64928480e+02
   6465    6470    1679 1       1.20640000e+02    5.08439680e+02
   6465    6470    6471 1       1.20020000e+02    5.32790560e+02
   6466    6465    6470 1       1.20830000e+02    5.08272320e+02
   6467    6466    6468 1       1.07730000e+02    2.99574400e+02
   6467    6466    6469 1       1.07730000e+02    2.99574400e+02
   6468    6466    6469 1       1.07730000e+02    2.99574400e+02
   6470    1679    1677 1       1.16810000e+02    4.91368960e+02
   6470    1679    1680 1       1.14530000e+02    3.58485120e+02
   6470    6471    1677 1       1.20640000e+02    5.08439680e+02
   6470    6471    6472 1       1.20020000e+02    5.32790560e+02
   6471    1677    1678 1       1.14530000e+02    3.58485120e+02
   6471    1677    1679 1       1.16810000e+02    4.91368960e+02
   6471    6470    1679 1       1.20640000e+02    5.08439680e+02
   6472    6471    1677 1       1.20640000e+02    5.08439680e+02
   6472    6473    6474 1       1.10630000e+02    3.64928480e+02
   6472    6473    6475 1       1.10630000e+02    3.64928480e+02
   6472    6473    6476 1       1.10630000e+02    3.64928480e+02
   6473    6472    6471 1       1.20830000e+02    5.08272320e+02
   6474    6473    6475 1       1.07730000e+02    2.99574400e+02
   6474    6473    6476 1       1.07730000e+02    2.99574400e+02
   6475    6473    6476 1       1.07730000e+02    2.99574400e+02
   6477    6479    6480 1       1.12000000e+02    3.56811520e+02
   6477    6479    6481 1       1.03090000e+02    5.20322240e+02
   6478    6477    6479 1       1.13690000e+02    3.54217440e+02
   6479    6481    6482 1       1.11170000e+02    3.56895200e+02
   6479    6481    6483 1       1.11170000e+02    3.56895200e+02
   6480    6479    6481 1       1.11170000e+02    3.56895200e+02
   6482    6481    6483 1       1.07220000e+02    3.00494880e+02
   6484    6485    6486 1       1.19880000e+02    3.75723200e+02
   6487    6491    6492 1       1.10280000e+02    5.05761920e+02
   6487    6491    6496 1       1.13070000e+02    5.03000480e+02
   6487    6491    6520 1       1.13070000e+02    5.03000480e+02
   6488    6487    6489 1       1.07730000e+02    2.99574400e+02
   6488    6487    6490 1       1.07730000e+02    2.99574400e+02
   6488    6487    6491 1       1.10530000e+02    3.60326080e+02
   6489    6487    6490 1       1.07730000e+02    2.99574400e+02
   6489    6487    6491 1       1.10530000e+02    3.60326080e+02
   6490    6487    6491 1       1.10530000e+02    3.60326080e+02
   6491    6492    6493 1       1.10530000e+02    3.60326080e+02
   6491    6492    6494 1       1.10530000e+02    3.60326080e+02
   6491    6492    6495 1       1.10530000e+02    3.60326080e+02
   6491    6496    6497 1       1.10210000e+02    5.31033280e+02
   6491    6496    6517 1       1.21870000e+02    5.06012960e+02
   6491    6520    6519 1       1.10210000e+02    5.31033280e+02
   6491    6520    6521 1       1.21870000e+02    5.06012960e+02
   6492    6491    6496 1       1.13070000e+02    5.03000480e+02
   6492    6491    6520 1       1.13070000e+02    5.03000480e+02
   6493    6492    6494 1       1.07730000e+02    2.99574400e+02
   6493    6492    6495 1       1.07730000e+02    2.99574400e+02
   6494    6492    6495 1       1.07730000e+02    2.99574400e+02
   6496    6491    6520 1       1.12520000e+02    5.08021280e+02
   6496    6497    6498 1       1.18410000e+02    5.33794720e+02
   6496    6497    6519 1       1.21100000e+02    5.12958400e+02
   6496    6517    6516 1       1.20020000e+02    5.32790560e+02
   6496    6517    6518 1       1.19880000e+02    3.75723200e+02
   6497    6496    6517 1       1.20730000e+02    5.29945440e+02
   6497    6498    6499 1       1.19820000e+02    3.74300640e+02
   6497    6498    6500 1       1.20730000e+02    5.29945440e+02
   6497    6519    6520 1       1.21100000e+02    5.12958400e+02
   6497    6519    6554 1       1.21100000e+02    5.12958400e+02
   6498    6497    6519 1       1.21100000e+02    5.12958400e+02
   6498    6500    6501 1       1.20640000e+02    5.08439680e+02
   6498    6500    6516 1       1.20020000e+02    5.32790560e+02
   6499    6498    6500 1       1.19880000e+02    3.75723200e+02
   6500    6501    6502 1       1.14530000e+02    3.58485120e+02
   6500    6501    6503 1       1.16810000e+02    4.91368960e+02
   6500    6501    6511 1       1.24830000e+02    4.77729120e+02
   6500    6516    6503 1       1.20640000e+02    5.08439680e+02
   6500    6516    6517 1       1.20020000e+02    5.32790560e+02
   6501    6500    6516 1       1.20640000e+02    5.08439680e+02
   6501    6503    6504 1       1.14760000e+02    3.49364000e+02
   6501    6503    6505 1       1.22490000e+02    4.75804480e+02
   6501    6503    6516 1       1.16810000e+02    4.91368960e+02
   6501    6511    6509 1       9.60300000e+01    5.40070720e+02
   6501    6511    6512 1       1.12000000e+02    3.56811520e+02
   6501    6511    6513 1       1.03090000e+02    5.20322240e+02
   6502    6501    6503 1       1.14760000e+02    3.49364000e+02
   6502    6501    6511 1       1.13690000e+02    3.54217440e+02
   6503    6501    6511 1       1.22490000e+02    4.75804480e+02
   6503    6505    6506 1       1.12000000e+02    3.56811520e+02
   6503    6505    6507 1       9.60300000e+01    5.40070720e+02
   6503    6505    6513 1       1.03090000e+02    5.20322240e+02
   6503    6516    6517 1       1.20640000e+02    5.08439680e+02
   6504    6503    6505 1       1.13690000e+02    3.54217440e+02
   6504    6503    6516 1       1.14530000e+02    3.58485120e+02
   6505    6503    6516 1       1.24830000e+02    4.77729120e+02
   6505    6507    2261 1       1.24830000e+02    4.77729120e+02
   6505    6507    6508 1       1.13690000e+02    3.54217440e+02
   6505    6507    6509 1       1.22490000e+02    4.75804480e+02
   6505    6513    6511 1       1.03830000e+02    5.17477120e+02
   6505    6513    6514 1       1.11170000e+02    3.56895200e+02
   6505    6513    6515 1       1.11170000e+02    3.56895200e+02
   6506    6505    6513 1       1.11170000e+02    3.56895200e+02
   6507    6505    6506 1       1.12000000e+02    3.56811520e+02
   6507    6509    6510 1       1.14760000e+02    3.49364000e+02
   6509    6507    6508 1       1.14760000e+02    3.49364000e+02
   6509    6511    6512 1       1.12000000e+02    3.56811520e+02
   6511    6509    2262 1       1.24830000e+02    4.77729120e+02
   6511    6509    6507 1       1.22490000e+02    4.75804480e+02
   6511    6509    6510 1       1.13690000e+02    3.54217440e+02
   6511    6513    6514 1       1.11170000e+02    3.56895200e+02
   6511    6513    6515 1       1.11170000e+02    3.56895200e+02
   6512    6511    6513 1       1.11170000e+02    3.56895200e+02
   6513    6505    6507 1       1.03090000e+02    5.20322240e+02
   6513    6511    6509 1       1.03090000e+02    5.20322240e+02
   6514    6513    6515 1       1.07220000e+02    3.00494880e+02
   6516    6517    6518 1       1.19880000e+02    3.75723200e+02
   6519    6520    6521 1       1.20730000e+02    5.29945440e+02
   6519    6554    6553 1       1.20730000e+02    5.29945440e+02
   6519    6554    6555 1       1.19820000e+02    3.74300640e+02
   6520    6519    6554 1       1.18410000e+02    5.33794720e+02
   6520    6521    6522 1       1.19880000e+02    3.75723200e+02
   6520    6521    6523 1       1.20020000e+02    5.32790560e+02
   6521    6523    6524 1       1.20640000e+02    5.08439680e+02
   6521    6523    6553 1       1.20020000e+02    5.32790560e+02
   6522    6521    6523 1       1.19880000e+02    3.75723200e+02
   6523    6524    6525 1       1.14530000e+02    3.58485120e+02
   6523    6524    6526 1       1.16810000e+02    4.91368960e+02
   6523    6524    6548 1       1.24830000e+02    4.77729120e+02
   6523    6553    6526 1       1.20640000e+02    5.08439680e+02
   6523    6553    6554 1       1.20020000e+02    5.32790560e+02
   6524    6523    6553 1       1.20640000e+02    5.08439680e+02
   6524    6526    6527 1       1.14760000e+02    3.49364000e+02
   6524    6526    6528 1       1.22490000e+02    4.75804480e+02
   6524    6526    6553 1       1.16810000e+02    4.91368960e+02
   6524    6548    6546 1       9.60300000e+01    5.40070720e+02
   6524    6548    6549 1       1.12000000e+02    3.56811520e+02
   6524    6548    6550 1       1.03090000e+02    5.20322240e+02
   6525    6524    6526 1       1.14760000e+02    3.49364000e+02
   6525    6524    6548 1       1.13690000e+02    3.54217440e+02
   6526    6524    6548 1       1.22490000e+02    4.75804480e+02
   6526    6528    6529 1       1.12000000e+02    3.56811520e+02
   6526    6528    6530 1       9.60300000e+01    5.40070720e+02
   6526    6528    6550 1       1.03090000e+02    5.20322240e+02
   6526    6553    6554 1       1.20640000e+02    5.08439680e+02
   6527    6526    6528 1       1.13690000e+02    3.54217440e+02
   6527    6526    6553 1       1.14530000e+02    3.58485120e+02
   6528    6526    6553 1       1.24830000e+02    4.77729120e+02
   6528    6530    6531 1       1.13690000e+02    3.54217440e+02
   6528    6530    6532 1       1.24830000e+02    4.77729120e+02
   6528    6530    6546 1       1.22490000e+02    4.75804480e+02
   6528    6550    6548 1       1.03830000e+02    5.17477120e+02
   6528    6550    6551 1       1.11170000e+02    3.56895200e+02
   6528    6550    6552 1       1.11170000e+02    3.56895200e+02
   6529    6528    6530 1       1.12000000e+02    3.56811520e+02
   6529    6528    6550 1       1.11170000e+02    3.56895200e+02
   6530    6528    6550 1       1.03090000e+02    5.20322240e+02
   6530    6532    6533 1       1.20640000e+02    5.08439680e+02
   6530    6532    6541 1       1.20640000e+02    5.08439680e+02
   6530    6546    6533 1       1.16810000e+02    4.91368960e+02
   6530    6546    6547 1       1.14760000e+02    3.49364000e+02
   6530    6546    6548 1       1.22490000e+02    4.75804480e+02
   6531    6530    6532 1       1.14530000e+02    3.58485120e+02
   6531    6530    6546 1       1.14760000e+02    3.49364000e+02
   6532    6530    6546 1       1.16810000e+02    4.91368960e+02
   6532    6533    6534 1       1.20020000e+02    5.32790560e+02
   6532    6533    6546 1       1.20640000e+02    5.08439680e+02
   6532    6541    6540 1       1.20020000e+02    5.32790560e+02
   6532    6541    6542 1       1.20830000e+02    5.08272320e+02
   6533    6532    6541 1       1.20020000e+02    5.32790560e+02
   6533    6534    6535 1       1.20830000e+02    5.08272320e+02
   6533    6534    6539 1       1.20020000e+02    5.32790560e+02
   6533    6546    6547 1       1.14530000e+02    3.58485120e+02
   6533    6546    6548 1       1.24830000e+02    4.77729120e+02
   6534    6533    6546 1       1.20640000e+02    5.08439680e+02
   6534    6535    6536 1       1.10630000e+02    3.64928480e+02
   6534    6535    6537 1       1.10630000e+02    3.64928480e+02
   6534    6535    6538 1       1.10630000e+02    3.64928480e+02
   6534    6539    6540 1       1.20020000e+02    5.32790560e+02
   6535    6534    6539 1       1.20830000e+02    5.08272320e+02
   6536    6535    6537 1       1.07730000e+02    2.99574400e+02
   6536    6535    6538 1       1.07730000e+02    2.99574400e+02
   6537    6535    6538 1       1.07730000e+02    2.99574400e+02
   6539    6540    6541 1       1.20020000e+02    5.32790560e+02
   6540    6541    6542 1       1.20830000e+02    5.08272320e+02
   6541    6542    6543 1       1.10630000e+02    3.64928480e+02
   6541    6542    6544 1       1.10630000e+02    3.64928480e+02
   6541    6542    6545 1       1.10630000e+02    3.64928480e+02
   6543    6542    6544 1       1.07730000e+02    2.99574400e+02
   6543    6542    6545 1       1.07730000e+02    2.99574400e+02
   6544    6542    6545 1       1.07730000e+02    2.99574400e+02
   6546    6548    6549 1       1.12000000e+02    3.56811520e+02
   6546    6548    6550 1       1.03090000e+02    5.20322240e+02
   6547    6546    6548 1       1.13690000e+02    3.54217440e+02
   6548    6550    6551 1       1.11170000e+02    3.56895200e+02
   6548    6550    6552 1       1.11170000e+02    3.56895200e+02
   6549    6548    6550 1       1.11170000e+02    3.56895200e+02
   6551    6550    6552 1       1.07220000e+02    3.00494880e+02
   6553    6554    6555 1       1.19880000e+02    3.75723200e+02
   6556    6560    6561 1       1.10280000e+02    5.05761920e+02
   6556    6560    6565 1       1.13070000e+02    5.03000480e+02
   6556    6560    6589 1       1.13070000e+02    5.03000480e+02
   6557    6556    6558 1       1.07730000e+02    2.99574400e+02
   6557    6556    6559 1       1.07730000e+02    2.99574400e+02
   6557    6556    6560 1       1.10530000e+02    3.60326080e+02
   6558    6556    6559 1       1.07730000e+02    2.99574400e+02
   6558    6556    6560 1       1.10530000e+02    3.60326080e+02
   6559    6556    6560 1       1.10530000e+02    3.60326080e+02
   6560    6561    6562 1       1.10530000e+02    3.60326080e+02
   6560    6561    6563 1       1.10530000e+02    3.60326080e+02
   6560    6561    6564 1       1.10530000e+02    3.60326080e+02
   6560    6565    6566 1       1.10210000e+02    5.31033280e+02
   6560    6565    6586 1       1.21870000e+02    5.06012960e+02
   6560    6589    6588 1       1.10210000e+02    5.31033280e+02
   6560    6589    6590 1       1.21870000e+02    5.06012960e+02
   6561    6560    6565 1       1.13070000e+02    5.03000480e+02
   6561    6560    6589 1       1.13070000e+02    5.03000480e+02
   6562    6561    6563 1       1.07730000e+02    2.99574400e+02
   6562    6561    6564 1       1.07730000e+02    2.99574400e+02
   6563    6561    6564 1       1.07730000e+02    2.99574400e+02
   6565    6560    6589 1       1.12520000e+02    5.08021280e+02
   6565    6566    6567 1       1.18410000e+02    5.33794720e+02
   6565    6566    6588 1       1.21100000e+02    5.12958400e+02
   6565    6586    6585 1       1.20020000e+02    5.32790560e+02
   6565    6586    6587 1       1.19880000e+02    3.75723200e+02
   6566    6565    6586 1       1.20730000e+02    5.29945440e+02
   6566    6567    6568 1       1.19820000e+02    3.74300640e+02
   6566    6567    6569 1       1.20730000e+02    5.29945440e+02
   6566    6588    6589 1       1.21100000e+02    5.12958400e+02
   6566    6588    6623 1       1.21100000e+02    5.12958400e+02
   6567    6566    6588 1       1.21100000e+02    5.12958400e+02
   6567    6569    6570 1       1.20640000e+02    5.08439680e+02
   6567    6569    6585 1       1.20020000e+02    5.32790560e+02
   6568    6567    6569 1       1.19880000e+02    3.75723200e+02
   6569    6570    6571 1       1.14530000e+02    3.58485120e+02
   6569    6570    6572 1       1.16810000e+02    4.91368960e+02
   6569    6570    6580 1       1.24830000e+02    4.77729120e+02
   6569    6585    6572 1       1.20640000e+02    5.08439680e+02
   6569    6585    6586 1       1.20020000e+02    5.32790560e+02
   6570    6569    6585 1       1.20640000e+02    5.08439680e+02
   6570    6572    6573 1       1.14760000e+02    3.49364000e+02
   6570    6572    6574 1       1.22490000e+02    4.75804480e+02
   6570    6572    6585 1       1.16810000e+02    4.91368960e+02
   6570    6580    6578 1       9.60300000e+01    5.40070720e+02
   6570    6580    6581 1       1.12000000e+02    3.56811520e+02
   6570    6580    6582 1       1.03090000e+02    5.20322240e+02
   6571    6570    6572 1       1.14760000e+02    3.49364000e+02
   6571    6570    6580 1       1.13690000e+02    3.54217440e+02
   6572    6570    6580 1       1.22490000e+02    4.75804480e+02
   6572    6574    6575 1       1.12000000e+02    3.56811520e+02
   6572    6574    6576 1       9.60300000e+01    5.40070720e+02
   6572    6574    6582 1       1.03090000e+02    5.20322240e+02
   6572    6585    6586 1       1.20640000e+02    5.08439680e+02
   6573    6572    6574 1       1.13690000e+02    3.54217440e+02
   6573    6572    6585 1       1.14530000e+02    3.58485120e+02
   6574    6572    6585 1       1.24830000e+02    4.77729120e+02
   6574    6576    3573 1       1.24830000e+02    4.77729120e+02
   6574    6576    6577 1       1.13690000e+02    3.54217440e+02
   6574    6576    6578 1       1.22490000e+02    4.75804480e+02
   6574    6582    6580 1       1.03830000e+02    5.17477120e+02
   6574    6582    6583 1       1.11170000e+02    3.56895200e+02
   6574    6582    6584 1       1.11170000e+02    3.56895200e+02
   6575    6574    6582 1       1.11170000e+02    3.56895200e+02
   6576    6574    6575 1       1.12000000e+02    3.56811520e+02
   6576    6578    6579 1       1.14760000e+02    3.49364000e+02
   6578    6576    6577 1       1.14760000e+02    3.49364000e+02
   6578    6580    6581 1       1.12000000e+02    3.56811520e+02
   6580    6578    3572 1       1.24830000e+02    4.77729120e+02
   6580    6578    6576 1       1.22490000e+02    4.75804480e+02
   6580    6578    6579 1       1.13690000e+02    3.54217440e+02
   6580    6582    6583 1       1.11170000e+02    3.56895200e+02
   6580    6582    6584 1       1.11170000e+02    3.56895200e+02
   6581    6580    6582 1       1.11170000e+02    3.56895200e+02
   6582    6574    6576 1       1.03090000e+02    5.20322240e+02
   6582    6580    6578 1       1.03090000e+02    5.20322240e+02
   6583    6582    6584 1       1.07220000e+02    3.00494880e+02
   6585    6586    6587 1       1.19880000e+02    3.75723200e+02
   6588    6589    6590 1       1.20730000e+02    5.29945440e+02
   6588    6623    6622 1       1.20730000e+02    5.29945440e+02
   6588    6623    6624 1       1.19820000e+02    3.74300640e+02
   6589    6588    6623 1       1.18410000e+02    5.33794720e+02
   6589    6590    6591 1       1.19880000e+02    3.75723200e+02
   6589    6590    6592 1       1.20020000e+02    5.32790560e+02
   6590    6592    6593 1       1.20640000e+02    5.08439680e+02
   6590    6592    6622 1       1.20020000e+02    5.32790560e+02
   6591    6590    6592 1       1.19880000e+02    3.75723200e+02
   6592    6593    6594 1       1.14530000e+02    3.58485120e+02
   6592    6593    6595 1       1.16810000e+02    4.91368960e+02
   6592    6593    6617 1       1.24830000e+02    4.77729120e+02
   6592    6622    6595 1       1.20640000e+02    5.08439680e+02
   6592    6622    6623 1       1.20020000e+02    5.32790560e+02
   6593    6592    6622 1       1.20640000e+02    5.08439680e+02
   6593    6595    6596 1       1.14760000e+02    3.49364000e+02
   6593    6595    6597 1       1.22490000e+02    4.75804480e+02
   6593    6595    6622 1       1.16810000e+02    4.91368960e+02
   6593    6617    6615 1       9.60300000e+01    5.40070720e+02
   6593    6617    6618 1       1.12000000e+02    3.56811520e+02
   6593    6617    6619 1       1.03090000e+02    5.20322240e+02
   6594    6593    6595 1       1.14760000e+02    3.49364000e+02
   6594    6593    6617 1       1.13690000e+02    3.54217440e+02
   6595    6593    6617 1       1.22490000e+02    4.75804480e+02
   6595    6597    6598 1       1.12000000e+02    3.56811520e+02
   6595    6597    6599 1       9.60300000e+01    5.40070720e+02
   6595    6597    6619 1       1.03090000e+02    5.20322240e+02
   6595    6622    6623 1       1.20640000e+02    5.08439680e+02
   6596    6595    6597 1       1.13690000e+02    3.54217440e+02
   6596    6595    6622 1       1.14530000e+02    3.58485120e+02
   6597    6595    6622 1       1.24830000e+02    4.77729120e+02
   6597    6599    6600 1       1.13690000e+02    3.54217440e+02
   6597    6599    6601 1       1.24830000e+02    4.77729120e+02
   6597    6599    6615 1       1.22490000e+02    4.75804480e+02
   6597    6619    6617 1       1.03830000e+02    5.17477120e+02
   6597    6619    6620 1       1.11170000e+02    3.56895200e+02
   6597    6619    6621 1       1.11170000e+02    3.56895200e+02
   6598    6597    6599 1       1.12000000e+02    3.56811520e+02
   6598    6597    6619 1       1.11170000e+02    3.56895200e+02
   6599    6597    6619 1       1.03090000e+02    5.20322240e+02
   6599    6601    6602 1       1.20640000e+02    5.08439680e+02
   6599    6601    6610 1       1.20640000e+02    5.08439680e+02
   6599    6615    6602 1       1.16810000e+02    4.91368960e+02
   6599    6615    6616 1       1.14760000e+02    3.49364000e+02
   6599    6615    6617 1       1.22490000e+02    4.75804480e+02
   6600    6599    6601 1       1.14530000e+02    3.58485120e+02
   6600    6599    6615 1       1.14760000e+02    3.49364000e+02
   6601    6599    6615 1       1.16810000e+02    4.91368960e+02
   6601    6602    6603 1       1.20020000e+02    5.32790560e+02
   6601    6602    6615 1       1.20640000e+02    5.08439680e+02
   6601    6610    6609 1       1.20020000e+02    5.32790560e+02
   6601    6610    6611 1       1.20830000e+02    5.08272320e+02
   6602    6601    6610 1       1.20020000e+02    5.32790560e+02
   6602    6603    6604 1       1.20830000e+02    5.08272320e+02
   6602    6603    6608 1       1.20020000e+02    5.32790560e+02
   6602    6615    6616 1       1.14530000e+02    3.58485120e+02
   6602    6615    6617 1       1.24830000e+02    4.77729120e+02
   6603    6602    6615 1       1.20640000e+02    5.08439680e+02
   6603    6604    6605 1       1.10630000e+02    3.64928480e+02
   6603    6604    6606 1       1.10630000e+02    3.64928480e+02
   6603    6604    6607 1       1.10630000e+02    3.64928480e+02
   6603    6608    2298 1       1.20640000e+02    5.08439680e+02
   6603    6608    6609 1       1.20020000e+02    5.32790560e+02
   6604    6603    6608 1       1.20830000e+02    5.08272320e+02
   6605    6604    6606 1       1.07730000e+02    2.99574400e+02
   6605    6604    6607 1       1.07730000e+02    2.99574400e+02
   6606    6604    6607 1       1.07730000e+02    2.99574400e+02
   6608    2298    2299 1       1.14530000e+02    3.58485120e+02
   6608    2298    2300 1       1.16810000e+02    4.91368960e+02
   6608    6609    2300 1       1.20640000e+02    5.08439680e+02
   6608    6609    6610 1       1.20020000e+02    5.32790560e+02
   6609    2300    2298 1       1.16810000e+02    4.91368960e+02
   6609    2300    2301 1       1.14530000e+02    3.58485120e+02
   6609    6608    2298 1       1.20640000e+02    5.08439680e+02
   6610    6609    2300 1       1.20640000e+02    5.08439680e+02
   6610    6611    6612 1       1.10630000e+02    3.64928480e+02
   6610    6611    6613 1       1.10630000e+02    3.64928480e+02
   6610    6611    6614 1       1.10630000e+02    3.64928480e+02
   6611    6610    6609 1       1.20830000e+02    5.08272320e+02
   6612    6611    6613 1       1.07730000e+02    2.99574400e+02
   6612    6611    6614 1       1.07730000e+02    2.99574400e+02
   6613    6611    6614 1       1.07730000e+02    2.99574400e+02
   6615    6617    6618 1       1.12000000e+02    3.56811520e+02
   6615    6617    6619 1       1.03090000e+02    5.20322240e+02
   6616    6615    6617 1       1.13690000e+02    3.54217440e+02
   6617    6619    6620 1       1.11170000e+02    3.56895200e+02
   6617    6619    6621 1       1.11170000e+02    3.56895200e+02
   6618    6617    6619 1       1.11170000e+02    3.56895200e+02
   6620    6619    6621 1       1.07220000e+02    3.00494880e+02
   6622    6623    6624 1       1.19880000e+02    3.75723200e+02
   6625    6629    6630 1       1.10280000e+02    5.05761920e+02
   6625    6629    6634 1       1.13070000e+02    5.03000480e+02
   6625    6629    6658 1       1.13070000e+02    5.03000480e+02
   6626    6625    6627 1       1.07730000e+02    2.99574400e+02
   6626    6625    6628 1       1.07730000e+02    2.99574400e+02
   6626    6625    6629 1       1.10530000e+02    3.60326080e+02
   6627    6625    6628 1       1.07730000e+02    2.99574400e+02
   6627    6625    6629 1       1.10530000e+02    3.60326080e+02
   6628    6625    6629 1       1.10530000e+02    3.60326080e+02
   6629    6630    6631 1       1.10530000e+02    3.60326080e+02
   6629    6630    6632 1       1.10530000e+02    3.60326080e+02
   6629    6630    6633 1       1.10530000e+02    3.60326080e+02
   6629    6634    6635 1       1.10210000e+02    5.31033280e+02
   6629    6634    6655 1       1.21870000e+02    5.06012960e+02
   6629    6658    6657 1       1.10210000e+02    5.31033280e+02
   6629    6658    6659 1       1.21870000e+02    5.06012960e+02
   6630    6629    6634 1       1.13070000e+02    5.03000480e+02
   6630    6629    6658 1       1.13070000e+02    5.03000480e+02
   6631    6630    6632 1       1.07730000e+02    2.99574400e+02
   6631    6630    6633 1       1.07730000e+02    2.99574400e+02
   6632    6630    6633 1       1.07730000e+02    2.99574400e+02
   6634    6629    6658 1       1.12520000e+02    5.08021280e+02
   6634    6635    6636 1       1.18410000e+02    5.33794720e+02
   6634    6635    6657 1       1.21100000e+02    5.12958400e+02
   6634    6655    6654 1       1.20020000e+02    5.32790560e+02
   6634    6655    6656 1       1.19880000e+02    3.75723200e+02
   6635    6634    6655 1       1.20730000e+02    5.29945440e+02
   6635    6636    6637 1       1.19820000e+02    3.74300640e+02
   6635    6636    6638 1       1.20730000e+02    5.29945440e+02
   6635    6657    6658 1       1.21100000e+02    5.12958400e+02
   6635    6657    6692 1       1.21100000e+02    5.12958400e+02
   6636    6635    6657 1       1.21100000e+02    5.12958400e+02
   6636    6638    6639 1       1.20640000e+02    5.08439680e+02
   6636    6638    6654 1       1.20020000e+02    5.32790560e+02
   6637    6636    6638 1       1.19880000e+02    3.75723200e+02
   6638    6639    6640 1       1.14530000e+02    3.58485120e+02
   6638    6639    6641 1       1.16810000e+02    4.91368960e+02
   6638    6639    6649 1       1.24830000e+02    4.77729120e+02
   6638    6654    6641 1       1.20640000e+02    5.08439680e+02
   6638    6654    6655 1       1.20020000e+02    5.32790560e+02
   6639    6638    6654 1       1.20640000e+02    5.08439680e+02
   6639    6641    6642 1       1.14760000e+02    3.49364000e+02
   6639    6641    6643 1       1.22490000e+02    4.75804480e+02
   6639    6641    6654 1       1.16810000e+02    4.91368960e+02
   6639    6649    6647 1       9.60300000e+01    5.40070720e+02
   6639    6649    6650 1       1.12000000e+02    3.56811520e+02
   6639    6649    6651 1       1.03090000e+02    5.20322240e+02
   6640    6639    6641 1       1.14760000e+02    3.49364000e+02
   6640    6639    6649 1       1.13690000e+02    3.54217440e+02
   6641    6639    6649 1       1.22490000e+02    4.75804480e+02
   6641    6643    6644 1       1.12000000e+02    3.56811520e+02
   6641    6643    6645 1       9.60300000e+01    5.40070720e+02
   6641    6643    6651 1       1.03090000e+02    5.20322240e+02
   6641    6654    6655 1       1.20640000e+02    5.08439680e+02
   6642    6641    6643 1       1.13690000e+02    3.54217440e+02
   6642    6641    6654 1       1.14530000e+02    3.58485120e+02
   6643    6641    6654 1       1.24830000e+02    4.77729120e+02
   6643    6645     261 1       1.24830000e+02    4.77729120e+02
   6643    6645    6646 1       1.13690000e+02    3.54217440e+02
   6643    6645    6647 1       1.22490000e+02    4.75804480e+02
   6643    6651    6649 1       1.03830000e+02    5.17477120e+02
   6643    6651    6652 1       1.11170000e+02    3.56895200e+02
   6643    6651    6653 1       1.11170000e+02    3.56895200e+02
   6644    6643    6651 1       1.11170000e+02    3.56895200e+02
   6645    6643    6644 1       1.12000000e+02    3.56811520e+02
   6645    6647    6648 1       1.14760000e+02    3.49364000e+02
   6647    6645    6646 1       1.14760000e+02    3.49364000e+02
   6647    6649    6650 1       1.12000000e+02    3.56811520e+02
   6649    6647     260 1       1.24830000e+02    4.77729120e+02
   6649    6647    6645 1       1.22490000e+02    4.75804480e+02
   6649    6647    6648 1       1.13690000e+02    3.54217440e+02
   6649    6651    6652 1       1.11170000e+02    3.56895200e+02
   6649    6651    6653 1       1.11170000e+02    3.56895200e+02
   6650    6649    6651 1       1.11170000e+02    3.56895200e+02
   6651    6643    6645 1       1.03090000e+02    5.20322240e+02
   6651    6649    6647 1       1.03090000e+02    5.20322240e+02
   6652    6651    6653 1       1.07220000e+02    3.00494880e+02
   6654    6655    6656 1       1.19880000e+02    3.75723200e+02
   6657    6658    6659 1       1.20730000e+02    5.29945440e+02
   6657    6692    6691 1       1.20730000e+02    5.29945440e+02
   6657    6692    6693 1       1.19820000e+02    3.74300640e+02
   6658    6657    6692 1       1.18410000e+02    5.33794720e+02
   6658    6659    6660 1       1.19880000e+02    3.75723200e+02
   6658    6659    6661 1       1.20020000e+02    5.32790560e+02
   6659    6661    6662 1       1.20640000e+02    5.08439680e+02
   6659    6661    6691 1       1.20020000e+02    5.32790560e+02
   6660    6659    6661 1       1.19880000e+02    3.75723200e+02
   6661    6662    6663 1       1.14530000e+02    3.58485120e+02
   6661    6662    6664 1       1.16810000e+02    4.91368960e+02
   6661    6662    6686 1       1.24830000e+02    4.77729120e+02
   6661    6691    6664 1       1.20640000e+02    5.08439680e+02
   6661    6691    6692 1       1.20020000e+02    5.32790560e+02
   6662    6661    6691 1       1.20640000e+02    5.08439680e+02
   6662    6664    6665 1       1.14760000e+02    3.49364000e+02
   6662    6664    6666 1       1.22490000e+02    4.75804480e+02
   6662    6664    6691 1       1.16810000e+02    4.91368960e+02
   6662    6686    6684 1       9.60300000e+01    5.40070720e+02
   6662    6686    6687 1       1.12000000e+02    3.56811520e+02
   6662    6686    6688 1       1.03090000e+02    5.20322240e+02
   6663    6662    6664 1       1.14760000e+02    3.49364000e+02
   6663    6662    6686 1       1.13690000e+02    3.54217440e+02
   6664    6662    6686 1       1.22490000e+02    4.75804480e+02
   6664    6666    6667 1       1.12000000e+02    3.56811520e+02
   6664    6666    6668 1       9.60300000e+01    5.40070720e+02
   6664    6666    6688 1       1.03090000e+02    5.20322240e+02
   6664    6691    6692 1       1.20640000e+02    5.08439680e+02
   6665    6664    6666 1       1.13690000e+02    3.54217440e+02
   6665    6664    6691 1       1.14530000e+02    3.58485120e+02
   6666    6664    6691 1       1.24830000e+02    4.77729120e+02
   6666    6668    6669 1       1.13690000e+02    3.54217440e+02
   6666    6668    6670 1       1.24830000e+02    4.77729120e+02
   6666    6668    6684 1       1.22490000e+02    4.75804480e+02
   6666    6688    6686 1       1.03830000e+02    5.17477120e+02
   6666    6688    6689 1       1.11170000e+02    3.56895200e+02
   6666    6688    6690 1       1.11170000e+02    3.56895200e+02
   6667    6666    6668 1       1.12000000e+02    3.56811520e+02
   6667    6666    6688 1       1.11170000e+02    3.56895200e+02
   6668    6666    6688 1       1.03090000e+02    5.20322240e+02
   6668    6670    6671 1       1.20640000e+02    5.08439680e+02
   6668    6670    6679 1       1.20640000e+02    5.08439680e+02
   6668    6684    6671 1       1.16810000e+02    4.91368960e+02
   6668    6684    6685 1       1.14760000e+02    3.49364000e+02
   6668    6684    6686 1       1.22490000e+02    4.75804480e+02
   6669    6668    6670 1       1.14530000e+02    3.58485120e+02
   6669    6668    6684 1       1.14760000e+02    3.49364000e+02
   6670    6668    6684 1       1.16810000e+02    4.91368960e+02
   6670    6671    6672 1       1.20020000e+02    5.32790560e+02
   6670    6671    6684 1       1.20640000e+02    5.08439680e+02
   6670    6679    6678 1       1.20020000e+02    5.32790560e+02
   6670    6679    6680 1       1.20830000e+02    5.08272320e+02
   6671    6670    6679 1       1.20020000e+02    5.32790560e+02
   6671    6672    6673 1       1.20830000e+02    5.08272320e+02
   6671    6672    6677 1       1.20020000e+02    5.32790560e+02
   6671    6684    6685 1       1.14530000e+02    3.58485120e+02
   6671    6684    6686 1       1.24830000e+02    4.77729120e+02
   6672    6671    6684 1       1.20640000e+02    5.08439680e+02
   6672    6673    6674 1       1.10630000e+02    3.64928480e+02
   6672    6673    6675 1       1.10630000e+02    3.64928480e+02
   6672    6673    6676 1       1.10630000e+02    3.64928480e+02
   6672    6677     506 1       1.20640000e+02    5.08439680e+02
   6672    6677    6678 1       1.20020000e+02    5.32790560e+02
   6673    6672    6677 1       1.20830000e+02    5.08272320e+02
   6674    6673    6675 1       1.07730000e+02    2.99574400e+02
   6674    6673    6676 1       1.07730000e+02    2.99574400e+02
   6675    6673    6676 1       1.07730000e+02    2.99574400e+02
   6677     506     504 1       1.16810000e+02    4.91368960e+02
   6677     506     507 1       1.14530000e+02    3.58485120e+02
   6677    6678     504 1       1.20640000e+02    5.08439680e+02
   6677    6678    6679 1       1.20020000e+02    5.32790560e+02
   6678     504     505 1       1.14530000e+02    3.58485120e+02
   6678     504     506 1       1.16810000e+02    4.91368960e+02
   6678    6677     506 1       1.20640000e+02    5.08439680e+02
   6679    6678     504 1       1.20640000e+02    5.08439680e+02
   6679    6680    6681 1       1.10630000e+02    3.64928480e+02
   6679    6680    6682 1       1.10630000e+02    3.64928480e+02
   6679    6680    6683 1       1.10630000e+02    3.64928480e+02
   6680    6679    6678 1       1.20830000e+02    5.08272320e+02
   6681    6680    6682 1       1.07730000e+02    2.99574400e+02
   6681    6680    6683 1       1.07730000e+02    2.99574400e+02
   6682    6680    6683 1       1.07730000e+02    2.99574400e+02
   6684    6686    6687 1       1.12000000e+02    3.56811520e+02
   6684    6686    6688 1       1.03090000e+02    5.20322240e+02
   6685    6684    6686 1       1.13690000e+02    3.54217440e+02
   6686    6688    6689 1       1.11170000e+02    3.56895200e+02
   6686    6688    6690 1       1.11170000e+02    3.56895200e+02
   6687    6686    6688 1       1.11170000e+02    3.56895200e+02
   6689    6688    6690 1       1.07220000e+02    3.00494880e+02
   6691    6692    6693 1       1.19880000e+02    3.75723200e+02
   6694    6698    6699 1       1.10280000e+02    5.05761920e+02
   6694    6698    6703 1       1.13070000e+02    5.03000480e+02
   6694    6698    6727 1       1.13070000e+02    5.03000480e+02
   6695    6694    6696 1       1.07730000e+02    2.99574400e+02
   6695    6694    6697 1       1.07730000e+02    2.99574400e+02
   6695    6694    6698 1       1.10530000e+02    3.60326080e+02
   6696    6694    6697 1       1.07730000e+02    2.99574400e+02
   6696    6694    6698 1       1.10530000e+02    3.60326080e+02
   6697    6694    6698 1       1.10530000e+02    3.60326080e+02
   6698    6699    6700 1       1.10530000e+02    3.60326080e+02
   6698    6699    6701 1       1.10530000e+02    3.60326080e+02
   6698    6699    6702 1       1.10530000e+02    3.60326080e+02
   6698    6703    6704 1       1.10210000e+02    5.31033280e+02
   6698    6703    6724 1       1.21870000e+02    5.06012960e+02
   6698    6727    6726 1       1.10210000e+02    5.31033280e+02
   6698    6727    6728 1       1.21870000e+02    5.06012960e+02
   6699    6698    6703 1       1.13070000e+02    5.03000480e+02
   6699    6698    6727 1       1.13070000e+02    5.03000480e+02
   6700    6699    6701 1       1.07730000e+02    2.99574400e+02
   6700    6699    6702 1       1.07730000e+02    2.99574400e+02
   6701    6699    6702 1       1.07730000e+02    2.99574400e+02
   6703    6698    6727 1       1.12520000e+02    5.08021280e+02
   6703    6704    6705 1       1.18410000e+02    5.33794720e+02
   6703    6704    6726 1       1.21100000e+02    5.12958400e+02
   6703    6724    6723 1       1.20020000e+02    5.32790560e+02
   6703    6724    6725 1       1.19880000e+02    3.75723200e+02
   6704    6703    6724 1       1.20730000e+02    5.29945440e+02
   6704    6705    6706 1       1.19820000e+02    3.74300640e+02
   6704    6705    6707 1       1.20730000e+02    5.29945440e+02
   6704    6726    6727 1       1.21100000e+02    5.12958400e+02
   6704    6726    6761 1       1.21100000e+02    5.12958400e+02
   6705    6704    6726 1       1.21100000e+02    5.12958400e+02
   6705    6707    6708 1       1.20640000e+02    5.08439680e+02
   6705    6707    6723 1       1.20020000e+02    5.32790560e+02
   6706    6705    6707 1       1.19880000e+02    3.75723200e+02
   6707    6708    6709 1       1.14530000e+02    3.58485120e+02
   6707    6708    6710 1       1.16810000e+02    4.91368960e+02
   6707    6708    6718 1       1.24830000e+02    4.77729120e+02
   6707    6723    6710 1       1.20640000e+02    5.08439680e+02
   6707    6723    6724 1       1.20020000e+02    5.32790560e+02
   6708    6707    6723 1       1.20640000e+02    5.08439680e+02
   6708    6710    6711 1       1.14760000e+02    3.49364000e+02
   6708    6710    6712 1       1.22490000e+02    4.75804480e+02
   6708    6710    6723 1       1.16810000e+02    4.91368960e+02
   6708    6718    6716 1       9.60300000e+01    5.40070720e+02
   6708    6718    6719 1       1.12000000e+02    3.56811520e+02
   6708    6718    6720 1       1.03090000e+02    5.20322240e+02
   6709    6708    6710 1       1.14760000e+02    3.49364000e+02
   6709    6708    6718 1       1.13690000e+02    3.54217440e+02
   6710    6708    6718 1       1.22490000e+02    4.75804480e+02
   6710    6712    6713 1       1.12000000e+02    3.56811520e+02
   6710    6712    6714 1       9.60300000e+01    5.40070720e+02
   6710    6712    6720 1       1.03090000e+02    5.20322240e+02
   6710    6723    6724 1       1.20640000e+02    5.08439680e+02
   6711    6710    6712 1       1.13690000e+02    3.54217440e+02
   6711    6710    6723 1       1.14530000e+02    3.58485120e+02
   6712    6710    6723 1       1.24830000e+02    4.77729120e+02
   6712    6714    5366 1       1.24830000e+02    4.77729120e+02
   6712    6714    6715 1       1.13690000e+02    3.54217440e+02
   6712    6714    6716 1       1.22490000e+02    4.75804480e+02
   6712    6720    6718 1       1.03830000e+02    5.17477120e+02
   6712    6720    6721 1       1.11170000e+02    3.56895200e+02
   6712    6720    6722 1       1.11170000e+02    3.56895200e+02
   6713    6712    6720 1       1.11170000e+02    3.56895200e+02
   6714    6712    6713 1       1.12000000e+02    3.56811520e+02
   6714    6716    6717 1       1.14760000e+02    3.49364000e+02
   6716    6714    6715 1       1.14760000e+02    3.49364000e+02
   6716    6718    6719 1       1.12000000e+02    3.56811520e+02
   6718    6716    5367 1       1.24830000e+02    4.77729120e+02
   6718    6716    6714 1       1.22490000e+02    4.75804480e+02
   6718    6716    6717 1       1.13690000e+02    3.54217440e+02
   6718    6720    6721 1       1.11170000e+02    3.56895200e+02
   6718    6720    6722 1       1.11170000e+02    3.56895200e+02
   6719    6718    6720 1       1.11170000e+02    3.56895200e+02
   6720    6712    6714 1       1.03090000e+02    5.20322240e+02
   6720    6718    6716 1       1.03090000e+02    5.20322240e+02
   6721    6720    6722 1       1.07220000e+02    3.00494880e+02
   6723    6724    6725 1       1.19880000e+02    3.75723200e+02
   6726    6727    6728 1       1.20730000e+02    5.29945440e+02
   6726    6761    6760 1       1.20730000e+02    5.29945440e+02
   6726    6761    6762 1       1.19820000e+02    3.74300640e+02
   6727    6726    6761 1       1.18410000e+02    5.33794720e+02
   6727    6728    6729 1       1.19880000e+02    3.75723200e+02
   6727    6728    6730 1       1.20020000e+02    5.32790560e+02
   6728    6730    6731 1       1.20640000e+02    5.08439680e+02
   6728    6730    6760 1       1.20020000e+02    5.32790560e+02
   6729    6728    6730 1       1.19880000e+02    3.75723200e+02
   6730    6731    6732 1       1.14530000e+02    3.58485120e+02
   6730    6731    6733 1       1.16810000e+02    4.91368960e+02
   6730    6731    6755 1       1.24830000e+02    4.77729120e+02
   6730    6760    6733 1       1.20640000e+02    5.08439680e+02
   6730    6760    6761 1       1.20020000e+02    5.32790560e+02
   6731    6730    6760 1       1.20640000e+02    5.08439680e+02
   6731    6733    6734 1       1.14760000e+02    3.49364000e+02
   6731    6733    6735 1       1.22490000e+02    4.75804480e+02
   6731    6733    6760 1       1.16810000e+02    4.91368960e+02
   6731    6755    6753 1       9.60300000e+01    5.40070720e+02
   6731    6755    6756 1       1.12000000e+02    3.56811520e+02
   6731    6755    6757 1       1.03090000e+02    5.20322240e+02
   6732    6731    6733 1       1.14760000e+02    3.49364000e+02
   6732    6731    6755 1       1.13690000e+02    3.54217440e+02
   6733    6731    6755 1       1.22490000e+02    4.75804480e+02
   6733    6735    6736 1       1.12000000e+02    3.56811520e+02
   6733    6735    6737 1       9.60300000e+01    5.40070720e+02
   6733    6735    6757 1       1.03090000e+02    5.20322240e+02
   6733    6760    6761 1       1.20640000e+02    5.08439680e+02
   6734    6733    6735 1       1.13690000e+02    3.54217440e+02
   6734    6733    6760 1       1.14530000e+02    3.58485120e+02
   6735    6733    6760 1       1.24830000e+02    4.77729120e+02
   6735    6737    6738 1       1.13690000e+02    3.54217440e+02
   6735    6737    6739 1       1.24830000e+02    4.77729120e+02
   6735    6737    6753 1       1.22490000e+02    4.75804480e+02
   6735    6757    6755 1       1.03830000e+02    5.17477120e+02
   6735    6757    6758 1       1.11170000e+02    3.56895200e+02
   6735    6757    6759 1       1.11170000e+02    3.56895200e+02
   6736    6735    6737 1       1.12000000e+02    3.56811520e+02
   6736    6735    6757 1       1.11170000e+02    3.56895200e+02
   6737    6735    6757 1       1.03090000e+02    5.20322240e+02
   6737    6739    6740 1       1.20640000e+02    5.08439680e+02
   6737    6739    6748 1       1.20640000e+02    5.08439680e+02
   6737    6753    6740 1       1.16810000e+02    4.91368960e+02
   6737    6753    6754 1       1.14760000e+02    3.49364000e+02
   6737    6753    6755 1       1.22490000e+02    4.75804480e+02
   6738    6737    6739 1       1.14530000e+02    3.58485120e+02
   6738    6737    6753 1       1.14760000e+02    3.49364000e+02
   6739    6737    6753 1       1.16810000e+02    4.91368960e+02
   6739    6740    6741 1       1.20020000e+02    5.32790560e+02
   6739    6740    6753 1       1.20640000e+02    5.08439680e+02
   6739    6748    6747 1       1.20020000e+02    5.32790560e+02
   6739    6748    6749 1       1.20830000e+02    5.08272320e+02
   6740    6739    6748 1       1.20020000e+02    5.32790560e+02
   6740    6741    6742 1       1.20830000e+02    5.08272320e+02
   6740    6741    6746 1       1.20020000e+02    5.32790560e+02
   6740    6753    6754 1       1.14530000e+02    3.58485120e+02
   6740    6753    6755 1       1.24830000e+02    4.77729120e+02
   6741    6740    6753 1       1.20640000e+02    5.08439680e+02
   6741    6742    6743 1       1.10630000e+02    3.64928480e+02
   6741    6742    6744 1       1.10630000e+02    3.64928480e+02
   6741    6742    6745 1       1.10630000e+02    3.64928480e+02
   6741    6746    4715 1       1.20640000e+02    5.08439680e+02
   6741    6746    6747 1       1.20020000e+02    5.32790560e+02
   6742    6741    6746 1       1.20830000e+02    5.08272320e+02
   6743    6742    6744 1       1.07730000e+02    2.99574400e+02
   6743    6742    6745 1       1.07730000e+02    2.99574400e+02
   6744    6742    6745 1       1.07730000e+02    2.99574400e+02
   6746    4715    4713 1       1.16810000e+02    4.91368960e+02
   6746    4715    4716 1       1.14530000e+02    3.58485120e+02
   6746    6747    4713 1       1.20640000e+02    5.08439680e+02
   6746    6747    6748 1       1.20020000e+02    5.32790560e+02
   6747    4713    4714 1       1.14530000e+02    3.58485120e+02
   6747    4713    4715 1       1.16810000e+02    4.91368960e+02
   6747    6746    4715 1       1.20640000e+02    5.08439680e+02
   6748    6747    4713 1       1.20640000e+02    5.08439680e+02
   6748    6749    6750 1       1.10630000e+02    3.64928480e+02
   6748    6749    6751 1       1.10630000e+02    3.64928480e+02
   6748    6749    6752 1       1.10630000e+02    3.64928480e+02
   6749    6748    6747 1       1.20830000e+02    5.08272320e+02
   6750    6749    6751 1       1.07730000e+02    2.99574400e+02
   6750    6749    6752 1       1.07730000e+02    2.99574400e+02
   6751    6749    6752 1       1.07730000e+02    2.99574400e+02
   6753    6755    6756 1       1.12000000e+02    3.56811520e+02
   6753    6755    6757 1       1.03090000e+02    5.20322240e+02
   6754    6753    6755 1       1.13690000e+02    3.54217440e+02
   6755    6757    6758 1       1.11170000e+02    3.56895200e+02
   6755    6757    6759 1       1.11170000e+02    3.56895200e+02
   6756    6755    6757 1       1.11170000e+02    3.56895200e+02
   6758    6757    6759 1       1.07220000e+02    3.00494880e+02
   6760    6761    6762 1       1.19880000e+02    3.75723200e+02
   6763    6767    6768 1       1.10280000e+02    5.05761920e+02
   6763    6767    6772 1       1.13070000e+02    5.03000480e+02
   6763    6767    6796 1       1.13070000e+02    5.03000480e+02
   6764    6763    6765 1       1.07730000e+02    2.99574400e+02
   6764    6763    6766 1       1.07730000e+02    2.99574400e+02
   6764    6763    6767 1       1.10530000e+02    3.60326080e+02
   6765    6763    6766 1       1.07730000e+02    2.99574400e+02
   6765    6763    6767 1       1.10530000e+02    3.60326080e+02
   6766    6763    6767 1       1.10530000e+02    3.60326080e+02
   6767    6768    6769 1       1.10530000e+02    3.60326080e+02
   6767    6768    6770 1       1.10530000e+02    3.60326080e+02
   6767    6768    6771 1       1.10530000e+02    3.60326080e+02
   6767    6772    6773 1       1.10210000e+02    5.31033280e+02
   6767    6772    6793 1       1.21870000e+02    5.06012960e+02
   6767    6796    6795 1       1.10210000e+02    5.31033280e+02
   6767    6796    6797 1       1.21870000e+02    5.06012960e+02
   6768    6767    6772 1       1.13070000e+02    5.03000480e+02
   6768    6767    6796 1       1.13070000e+02    5.03000480e+02
   6769    6768    6770 1       1.07730000e+02    2.99574400e+02
   6769    6768    6771 1       1.07730000e+02    2.99574400e+02
   6770    6768    6771 1       1.07730000e+02    2.99574400e+02
   6772    6767    6796 1       1.12520000e+02    5.08021280e+02
   6772    6773    6774 1       1.18410000e+02    5.33794720e+02
   6772    6773    6795 1       1.21100000e+02    5.12958400e+02
   6772    6793    6792 1       1.20020000e+02    5.32790560e+02
   6772    6793    6794 1       1.19880000e+02    3.75723200e+02
   6773    6772    6793 1       1.20730000e+02    5.29945440e+02
   6773    6774    6775 1       1.19820000e+02    3.74300640e+02
   6773    6774    6776 1       1.20730000e+02    5.29945440e+02
   6773    6795    6796 1       1.21100000e+02    5.12958400e+02
   6773    6795    6830 1       1.21100000e+02    5.12958400e+02
   6774    6773    6795 1       1.21100000e+02    5.12958400e+02
   6774    6776    6777 1       1.20640000e+02    5.08439680e+02
   6774    6776    6792 1       1.20020000e+02    5.32790560e+02
   6775    6774    6776 1       1.19880000e+02    3.75723200e+02
   6776    6777    6778 1       1.14530000e+02    3.58485120e+02
   6776    6777    6779 1       1.16810000e+02    4.91368960e+02
   6776    6777    6787 1       1.24830000e+02    4.77729120e+02
   6776    6792    6779 1       1.20640000e+02    5.08439680e+02
   6776    6792    6793 1       1.20020000e+02    5.32790560e+02
   6777    6776    6792 1       1.20640000e+02    5.08439680e+02
   6777    6779    6780 1       1.14760000e+02    3.49364000e+02
   6777    6779    6781 1       1.22490000e+02    4.75804480e+02
   6777    6779    6792 1       1.16810000e+02    4.91368960e+02
   6777    6787    6785 1       9.60300000e+01    5.40070720e+02
   6777    6787    6788 1       1.12000000e+02    3.56811520e+02
   6777    6787    6789 1       1.03090000e+02    5.20322240e+02
   6778    6777    6779 1       1.14760000e+02    3.49364000e+02
   6778    6777    6787 1       1.13690000e+02    3.54217440e+02
   6779    6777    6787 1       1.22490000e+02    4.75804480e+02
   6779    6781    6782 1       1.12000000e+02    3.56811520e+02
   6779    6781    6783 1       9.60300000e+01    5.40070720e+02
   6779    6781    6789 1       1.03090000e+02    5.20322240e+02
   6779    6792    6793 1       1.20640000e+02    5.08439680e+02
   6780    6779    6781 1       1.13690000e+02    3.54217440e+02
   6780    6779    6792 1       1.14530000e+02    3.58485120e+02
   6781    6779    6792 1       1.24830000e+02    4.77729120e+02
   6781    6783    4815 1       1.24830000e+02    4.77729120e+02
   6781    6783    6784 1       1.13690000e+02    3.54217440e+02
   6781    6783    6785 1       1.22490000e+02    4.75804480e+02
   6781    6789    6787 1       1.03830000e+02    5.17477120e+02
   6781    6789    6790 1       1.11170000e+02    3.56895200e+02
   6781    6789    6791 1       1.11170000e+02    3.56895200e+02
   6782    6781    6789 1       1.11170000e+02    3.56895200e+02
   6783    6781    6782 1       1.12000000e+02    3.56811520e+02
   6783    6785    6786 1       1.14760000e+02    3.49364000e+02
   6785    6783    6784 1       1.14760000e+02    3.49364000e+02
   6785    6787    6788 1       1.12000000e+02    3.56811520e+02
   6787    6785    4814 1       1.24830000e+02    4.77729120e+02
   6787    6785    6783 1       1.22490000e+02    4.75804480e+02
   6787    6785    6786 1       1.13690000e+02    3.54217440e+02
   6787    6789    6790 1       1.11170000e+02    3.56895200e+02
   6787    6789    6791 1       1.11170000e+02    3.56895200e+02
   6788    6787    6789 1       1.11170000e+02    3.56895200e+02
   6789    6781    6783 1       1.03090000e+02    5.20322240e+02
   6789    6787    6785 1       1.03090000e+02    5.20322240e+02
   6790    6789    6791 1       1.07220000e+02    3.00494880e+02
   6792    6793    6794 1       1.19880000e+02    3.75723200e+02
   6795    6796    6797 1       1.20730000e+02    5.29945440e+02
   6795    6830    6829 1       1.20730000e+02    5.29945440e+02
   6795    6830    6831 1       1.19820000e+02    3.74300640e+02
   6796    6795    6830 1       1.18410000e+02    5.33794720e+02
   6796    6797    6798 1       1.19880000e+02    3.75723200e+02
   6796    6797    6799 1       1.20020000e+02    5.32790560e+02
   6797    6799    6800 1       1.20640000e+02    5.08439680e+02
   6797    6799    6829 1       1.20020000e+02    5.32790560e+02
   6798    6797    6799 1       1.19880000e+02    3.75723200e+02
   6799    6800    6801 1       1.14530000e+02    3.58485120e+02
   6799    6800    6802 1       1.16810000e+02    4.91368960e+02
   6799    6800    6824 1       1.24830000e+02    4.77729120e+02
   6799    6829    6802 1       1.20640000e+02    5.08439680e+02
   6799    6829    6830 1       1.20020000e+02    5.32790560e+02
   6800    6799    6829 1       1.20640000e+02    5.08439680e+02
   6800    6802    6803 1       1.14760000e+02    3.49364000e+02
   6800    6802    6804 1       1.22490000e+02    4.75804480e+02
   6800    6802    6829 1       1.16810000e+02    4.91368960e+02
   6800    6824    6822 1       9.60300000e+01    5.40070720e+02
   6800    6824    6825 1       1.12000000e+02    3.56811520e+02
   6800    6824    6826 1       1.03090000e+02    5.20322240e+02
   6801    6800    6802 1       1.14760000e+02    3.49364000e+02
   6801    6800    6824 1       1.13690000e+02    3.54217440e+02
   6802    6800    6824 1       1.22490000e+02    4.75804480e+02
   6802    6804    6805 1       1.12000000e+02    3.56811520e+02
   6802    6804    6806 1       9.60300000e+01    5.40070720e+02
   6802    6804    6826 1       1.03090000e+02    5.20322240e+02
   6802    6829    6830 1       1.20640000e+02    5.08439680e+02
   6803    6802    6804 1       1.13690000e+02    3.54217440e+02
   6803    6802    6829 1       1.14530000e+02    3.58485120e+02
   6804    6802    6829 1       1.24830000e+02    4.77729120e+02
   6804    6806    6807 1       1.13690000e+02    3.54217440e+02
   6804    6806    6808 1       1.24830000e+02    4.77729120e+02
   6804    6806    6822 1       1.22490000e+02    4.75804480e+02
   6804    6826    6824 1       1.03830000e+02    5.17477120e+02
   6804    6826    6827 1       1.11170000e+02    3.56895200e+02
   6804    6826    6828 1       1.11170000e+02    3.56895200e+02
   6805    6804    6806 1       1.12000000e+02    3.56811520e+02
   6805    6804    6826 1       1.11170000e+02    3.56895200e+02
   6806    6804    6826 1       1.03090000e+02    5.20322240e+02
   6806    6808    6809 1       1.20640000e+02    5.08439680e+02
   6806    6808    6817 1       1.20640000e+02    5.08439680e+02
   6806    6822    6809 1       1.16810000e+02    4.91368960e+02
   6806    6822    6823 1       1.14760000e+02    3.49364000e+02
   6806    6822    6824 1       1.22490000e+02    4.75804480e+02
   6807    6806    6808 1       1.14530000e+02    3.58485120e+02
   6807    6806    6822 1       1.14760000e+02    3.49364000e+02
   6808    6806    6822 1       1.16810000e+02    4.91368960e+02
   6808    6809    6810 1       1.20020000e+02    5.32790560e+02
   6808    6809    6822 1       1.20640000e+02    5.08439680e+02
   6808    6817    6816 1       1.20020000e+02    5.32790560e+02
   6808    6817    6818 1       1.20830000e+02    5.08272320e+02
   6809    6808    6817 1       1.20020000e+02    5.32790560e+02
   6809    6810    6811 1       1.20830000e+02    5.08272320e+02
   6809    6810    6815 1       1.20020000e+02    5.32790560e+02
   6809    6822    6823 1       1.14530000e+02    3.58485120e+02
   6809    6822    6824 1       1.24830000e+02    4.77729120e+02
   6810    6809    6822 1       1.20640000e+02    5.08439680e+02
   6810    6811    6812 1       1.10630000e+02    3.64928480e+02
   6810    6811    6813 1       1.10630000e+02    3.64928480e+02
   6810    6811    6814 1       1.10630000e+02    3.64928480e+02
   6810    6815      23 1       1.20640000e+02    5.08439680e+02
   6810    6815    6816 1       1.20020000e+02    5.32790560e+02
   6811    6810    6815 1       1.20830000e+02    5.08272320e+02
   6812    6811    6813 1       1.07730000e+02    2.99574400e+02
   6812    6811    6814 1       1.07730000e+02    2.99574400e+02
   6813    6811    6814 1       1.07730000e+02    2.99574400e+02
   6815      23      21 1       1.16810000e+02    4.91368960e+02
   6815      23      24 1       1.14530000e+02    3.58485120e+02
   6815    6816      21 1       1.20640000e+02    5.08439680e+02
   6815    6816    6817 1       1.20020000e+02    5.32790560e+02
   6816      21      22 1       1.14530000e+02    3.58485120e+02
   6816      21      23 1       1.16810000e+02    4.91368960e+02
   6816    6815      23 1       1.20640000e+02    5.08439680e+02
   6817    6816      21 1       1.20640000e+02    5.08439680e+02
   6817    6818    6819 1       1.10630000e+02    3.64928480e+02
   6817    6818    6820 1       1.10630000e+02    3.64928480e+02
   6817    6818    6821 1       1.10630000e+02    3.64928480e+02
   6818    6817    6816 1       1.20830000e+02    5.08272320e+02
   6819    6818    6820 1       1.07730000e+02    2.99574400e+02
   6819    6818    6821 1       1.07730000e+02    2.99574400e+02
   6820    6818    6821 1       1.07730000e+02    2.99574400e+02
   6822    6824    6825 1       1.12000000e+02    3.56811520e+02
   6822    6824    6826 1       1.03090000e+02    5.20322240e+02
   6823    6822    6824 1       1.13690000e+02    3.54217440e+02
   6824    6826    6827 1       1.11170000e+02    3.56895200e+02
   6824    6826    6828 1       1.11170000e+02    3.56895200e+02
   6825    6824    6826 1       1.11170000e+02    3.56895200e+02
   6827    6826    6828 1       1.07220000e+02    3.00494880e+02
   6829    6830    6831 1       1.19880000e+02    3.75723200e+02
   6832    6836    6837 1       1.10280000e+02    5.05761920e+02
   6832    6836    6841 1       1.13070000e+02    5.03000480e+02
   6832    6836    6865 1       1.13070000e+02    5.03000480e+02
   6833    6832    6834 1       1.07730000e+02    2.99574400e+02
   6833    6832    6835 1       1.07730000e+02    2.99574400e+02
   6833    6832    6836 1       1.10530000e+02    3.60326080e+02
   6834    6832    6835 1       1.07730000e+02    2.99574400e+02
   6834    6832    6836 1       1.10530000e+02    3.60326080e+02
   6835    6832    6836 1       1.10530000e+02    3.60326080e+02
   6836    6837    6838 1       1.10530000e+02    3.60326080e+02
   6836    6837    6839 1       1.10530000e+02    3.60326080e+02
   6836    6837    6840 1       1.10530000e+02    3.60326080e+02
   6836    6841    6842 1       1.10210000e+02    5.31033280e+02
   6836    6841    6862 1       1.21870000e+02    5.06012960e+02
   6836    6865    6864 1       1.10210000e+02    5.31033280e+02
   6836    6865    6866 1       1.21870000e+02    5.06012960e+02
   6837    6836    6841 1       1.13070000e+02    5.03000480e+02
   6837    6836    6865 1       1.13070000e+02    5.03000480e+02
   6838    6837    6839 1       1.07730000e+02    2.99574400e+02
   6838    6837    6840 1       1.07730000e+02    2.99574400e+02
   6839    6837    6840 1       1.07730000e+02    2.99574400e+02
   6841    6836    6865 1       1.12520000e+02    5.08021280e+02
   6841    6842    6843 1       1.18410000e+02    5.33794720e+02
   6841    6842    6864 1       1.21100000e+02    5.12958400e+02
   6841    6862    6861 1       1.20020000e+02    5.32790560e+02
   6841    6862    6863 1       1.19880000e+02    3.75723200e+02
   6842    6841    6862 1       1.20730000e+02    5.29945440e+02
   6842    6843    6844 1       1.19820000e+02    3.74300640e+02
   6842    6843    6845 1       1.20730000e+02    5.29945440e+02
   6842    6864    6865 1       1.21100000e+02    5.12958400e+02
   6842    6864    6899 1       1.21100000e+02    5.12958400e+02
   6843    6842    6864 1       1.21100000e+02    5.12958400e+02
   6843    6845    6846 1       1.20640000e+02    5.08439680e+02
   6843    6845    6861 1       1.20020000e+02    5.32790560e+02
   6844    6843    6845 1       1.19880000e+02    3.75723200e+02
   6845    6846    6847 1       1.14530000e+02    3.58485120e+02
   6845    6846    6848 1       1.16810000e+02    4.91368960e+02
   6845    6846    6856 1       1.24830000e+02    4.77729120e+02
   6845    6861    6848 1       1.20640000e+02    5.08439680e+02
   6845    6861    6862 1       1.20020000e+02    5.32790560e+02
   6846    6845    6861 1       1.20640000e+02    5.08439680e+02
   6846    6848    6849 1       1.14760000e+02    3.49364000e+02
   6846    6848    6850 1       1.22490000e+02    4.75804480e+02
   6846    6848    6861 1       1.16810000e+02    4.91368960e+02
   6846    6856    6854 1       9.60300000e+01    5.40070720e+02
   6846    6856    6857 1       1.12000000e+02    3.56811520e+02
   6846    6856    6858 1       1.03090000e+02    5.20322240e+02
   6847    6846    6848 1       1.14760000e+02    3.49364000e+02
   6847    6846    6856 1       1.13690000e+02    3.54217440e+02
   6848    6846    6856 1       1.22490000e+02    4.75804480e+02
   6848    6850    6851 1       1.12000000e+02    3.56811520e+02
   6848    6850    6852 1       9.60300000e+01    5.40070720e+02
   6848    6850    6858 1       1.03090000e+02    5.20322240e+02
   6848    6861    6862 1       1.20640000e+02    5.08439680e+02
   6849    6848    6850 1       1.13690000e+02    3.54217440e+02
   6849    6848    6861 1       1.14530000e+02    3.58485120e+02
   6850    6848    6861 1       1.24830000e+02    4.77729120e+02
   6850    6852    5297 1       1.24830000e+02    4.77729120e+02
   6850    6852    6853 1       1.13690000e+02    3.54217440e+02
   6850    6852    6854 1       1.22490000e+02    4.75804480e+02
   6850    6858    6856 1       1.03830000e+02    5.17477120e+02
   6850    6858    6859 1       1.11170000e+02    3.56895200e+02
   6850    6858    6860 1       1.11170000e+02    3.56895200e+02
   6851    6850    6858 1       1.11170000e+02    3.56895200e+02
   6852    6850    6851 1       1.12000000e+02    3.56811520e+02
   6852    6854    6855 1       1.14760000e+02    3.49364000e+02
   6854    6852    6853 1       1.14760000e+02    3.49364000e+02
   6854    6856    6857 1       1.12000000e+02    3.56811520e+02
   6856    6854    5298 1       1.24830000e+02    4.77729120e+02
   6856    6854    6852 1       1.22490000e+02    4.75804480e+02
   6856    6854    6855 1       1.13690000e+02    3.54217440e+02
   6856    6858    6859 1       1.11170000e+02    3.56895200e+02
   6856    6858    6860 1       1.11170000e+02    3.56895200e+02
   6857    6856    6858 1       1.11170000e+02    3.56895200e+02
   6858    6850    6852 1       1.03090000e+02    5.20322240e+02
   6858    6856    6854 1       1.03090000e+02    5.20322240e+02
   6859    6858    6860 1       1.07220000e+02    3.00494880e+02
   6861    6862    6863 1       1.19880000e+02    3.75723200e+02
   6864    6865    6866 1       1.20730000e+02    5.29945440e+02
   6864    6899    6898 1       1.20730000e+02    5.29945440e+02
   6864    6899    6900 1       1.19820000e+02    3.74300640e+02
   6865    6864    6899 1       1.18410000e+02    5.33794720e+02
   6865    6866    6867 1       1.19880000e+02    3.75723200e+02
   6865    6866    6868 1       1.20020000e+02    5.32790560e+02
   6866    6868    6869 1       1.20640000e+02    5.08439680e+02
   6866    6868    6898 1       1.20020000e+02    5.32790560e+02
   6867    6866    6868 1       1.19880000e+02    3.75723200e+02
   6868    6869    6870 1       1.14530000e+02    3.58485120e+02
   6868    6869    6871 1       1.16810000e+02    4.91368960e+02
   6868    6869    6893 1       1.24830000e+02    4.77729120e+02
   6868    6898    6871 1       1.20640000e+02    5.08439680e+02
   6868    6898    6899 1       1.20020000e+02    5.32790560e+02
   6869    6868    6898 1       1.20640000e+02    5.08439680e+02
   6869    6871    6872 1       1.14760000e+02    3.49364000e+02
   6869    6871    6873 1       1.22490000e+02    4.75804480e+02
   6869    6871    6898 1       1.16810000e+02    4.91368960e+02
   6869    6893    6891 1       9.60300000e+01    5.40070720e+02
   6869    6893    6894 1       1.12000000e+02    3.56811520e+02
   6869    6893    6895 1       1.03090000e+02    5.20322240e+02
   6870    6869    6871 1       1.14760000e+02    3.49364000e+02
   6870    6869    6893 1       1.13690000e+02    3.54217440e+02
   6871    6869    6893 1       1.22490000e+02    4.75804480e+02
   6871    6873    6874 1       1.12000000e+02    3.56811520e+02
   6871    6873    6875 1       9.60300000e+01    5.40070720e+02
   6871    6873    6895 1       1.03090000e+02    5.20322240e+02
   6871    6898    6899 1       1.20640000e+02    5.08439680e+02
   6872    6871    6873 1       1.13690000e+02    3.54217440e+02
   6872    6871    6898 1       1.14530000e+02    3.58485120e+02
   6873    6871    6898 1       1.24830000e+02    4.77729120e+02
   6873    6875    6876 1       1.13690000e+02    3.54217440e+02
   6873    6875    6877 1       1.24830000e+02    4.77729120e+02
   6873    6875    6891 1       1.22490000e+02    4.75804480e+02
   6873    6895    6893 1       1.03830000e+02    5.17477120e+02
   6873    6895    6896 1       1.11170000e+02    3.56895200e+02
   6873    6895    6897 1       1.11170000e+02    3.56895200e+02
   6874    6873    6875 1       1.12000000e+02    3.56811520e+02
   6874    6873    6895 1       1.11170000e+02    3.56895200e+02
   6875    6873    6895 1       1.03090000e+02    5.20322240e+02
   6875    6877    6878 1       1.20640000e+02    5.08439680e+02
   6875    6877    6886 1       1.20640000e+02    5.08439680e+02
   6875    6891    6878 1       1.16810000e+02    4.91368960e+02
   6875    6891    6892 1       1.14760000e+02    3.49364000e+02
   6875    6891    6893 1       1.22490000e+02    4.75804480e+02
   6876    6875    6877 1       1.14530000e+02    3.58485120e+02
   6876    6875    6891 1       1.14760000e+02    3.49364000e+02
   6877    6875    6891 1       1.16810000e+02    4.91368960e+02
   6877    6878    6879 1       1.20020000e+02    5.32790560e+02
   6877    6878    6891 1       1.20640000e+02    5.08439680e+02
   6877    6886    6885 1       1.20020000e+02    5.32790560e+02
   6877    6886    6887 1       1.20830000e+02    5.08272320e+02
   6878    6877    6886 1       1.20020000e+02    5.32790560e+02
   6878    6879    6880 1       1.20830000e+02    5.08272320e+02
   6878    6879    6884 1       1.20020000e+02    5.32790560e+02
   6878    6891    6892 1       1.14530000e+02    3.58485120e+02
   6878    6891    6893 1       1.24830000e+02    4.77729120e+02
   6879    6878    6891 1       1.20640000e+02    5.08439680e+02
   6879    6880    6881 1       1.10630000e+02    3.64928480e+02
   6879    6880    6882 1       1.10630000e+02    3.64928480e+02
   6879    6880    6883 1       1.10630000e+02    3.64928480e+02
   6879    6884    4784 1       1.20640000e+02    5.08439680e+02
   6879    6884    6885 1       1.20020000e+02    5.32790560e+02
   6880    6879    6884 1       1.20830000e+02    5.08272320e+02
   6881    6880    6882 1       1.07730000e+02    2.99574400e+02
   6881    6880    6883 1       1.07730000e+02    2.99574400e+02
   6882    6880    6883 1       1.07730000e+02    2.99574400e+02
   6884    4784    4782 1       1.16810000e+02    4.91368960e+02
   6884    4784    4785 1       1.14530000e+02    3.58485120e+02
   6884    6885    4782 1       1.20640000e+02    5.08439680e+02
   6884    6885    6886 1       1.20020000e+02    5.32790560e+02
   6885    4782    4783 1       1.14530000e+02    3.58485120e+02
   6885    4782    4784 1       1.16810000e+02    4.91368960e+02
   6885    6884    4784 1       1.20640000e+02    5.08439680e+02
   6886    6885    4782 1       1.20640000e+02    5.08439680e+02
   6886    6887    6888 1       1.10630000e+02    3.64928480e+02
   6886    6887    6889 1       1.10630000e+02    3.64928480e+02
   6886    6887    6890 1       1.10630000e+02    3.64928480e+02
   6887    6886    6885 1       1.20830000e+02    5.08272320e+02
   6888    6887    6889 1       1.07730000e+02    2.99574400e+02
   6888    6887    6890 1       1.07730000e+02    2.99574400e+02
   6889    6887    6890 1       1.07730000e+02    2.99574400e+02
   6891    6893    6894 1       1.12000000e+02    3.56811520e+02
   6891    6893    6895 1       1.03090000e+02    5.20322240e+02
   6892    6891    6893 1       1.13690000e+02    3.54217440e+02
   6893    6895    6896 1       1.11170000e+02    3.56895200e+02
   6893    6895    6897 1       1.11170000e+02    3.56895200e+02
   6894    6893    6895 1       1.11170000e+02    3.56895200e+02
   6896    6895    6897 1       1.07220000e+02    3.00494880e+02
   6898    6899    6900 1       1.19880000e+02    3.75723200e+02

[ dihedrals ]
;   ai   aj   ak   al   funct   phi   K     mult.
     6819  6818  6817  6816    1  0.0000000000      0.0000000000       2
     6820  6818  6817  6816    1  0.0000000000      0.0000000000       2
     6821  6818  6817  6816    1  0.0000000000      0.0000000000       2
     2923  2921  2919  2920    1  0.0000000000      0.6508444444       3
     2923  2921  2919  3228    1  0.0000000000      0.6508444444       3
     3227  2921  2919  2920    1  0.0000000000      0.6508444444       3
     6802  6804  6806  6807    1  0.0000000000      0.5439200000       3
     6802  6804  6806  6808    1  0.0000000000      0.6508444444       3
     6802  6804  6806  6822    1  0.0000000000      2.1756800000       3
     6805  6804  6806  6807    1  0.0000000000      0.5020800000       3
     6805  6804  6806  6808    1  0.0000000000      0.6508444444       3
     6805  6804  6806  6822    1  0.0000000000      0.5439200000       3
     6826  6804  6806  6807    1  0.0000000000      0.5439200000       3
     6826  6804  6806  6808    1  0.0000000000      0.6508444444       3
     6826  6804  6806  6822    1  0.0000000000      2.1756800000       3
     6802  6804  6826  6824    1  0.0000000000      0.6508444444       3
     6802  6804  6826  6827    1  0.0000000000      0.6508444444       3
     6802  6804  6826  6828    1  0.0000000000      0.6508444444       3
     6805  6804  6826  6824    1  0.0000000000      0.5439200000       3
     6805  6804  6826  6827    1  0.0000000000      0.5020800000       3
     6805  6804  6826  6828    1  0.0000000000      0.5020800000       3
     6806  6804  6826  6824    1  0.0000000000      0.6508444444       3
     6806  6804  6826  6827    1  0.0000000000      0.6508444444       3
     6806  6804  6826  6828    1  0.0000000000      0.6508444444       3
     1385  1390  1391  1392    1  180.0000000000    15.1670000000      2
     1385  1390  1391  1413    1  180.0000000000    15.1670000000      2
     1411  1390  1391  1392    1  180.0000000000    15.1670000000      2
     1411  1390  1391  1413    1  180.0000000000    15.1670000000      2
     1385  1390  1411  1410    1  180.0000000000    15.1670000000      2
     1385  1390  1411  1412    1  180.0000000000    15.1670000000      2
     1391  1390  1411  1410    1  180.0000000000    15.1670000000      2
     1391  1390  1411  1412    1  180.0000000000    15.1670000000      2
     1382  1381  1385  1386    1  0.0000000000      0.5439200000       3
     1382  1381  1385  1390    1  0.0000000000      0.6508444444       3
     1382  1381  1385  1414    1  0.0000000000      0.6508444444       3
     1383  1381  1385  1386    1  0.0000000000      0.5439200000       3
     1383  1381  1385  1390    1  0.0000000000      0.6508444444       3
     1383  1381  1385  1414    1  0.0000000000      0.6508444444       3
     1384  1381  1385  1386    1  0.0000000000      0.5439200000       3
     1384  1381  1385  1390    1  0.0000000000      0.6508444444       3
     1384  1381  1385  1414    1  0.0000000000      0.6508444444       3
     2912  2913  2915  2916    1  0.0000000000      0.6508444444       3
     2912  2913  2915  2917    1  0.0000000000      0.6508444444       3
     2912  2913  2915  2928    1  0.0000000000      0.6508444444       3
     2914  2913  2915  2916    1  0.0000000000      0.6508444444       3
     2914  2913  2915  2917    1  0.0000000000      0.6508444444       3
     2914  2913  2915  2928    1  0.0000000000      0.6508444444       3
     2923  2913  2915  2916    1  0.0000000000      0.6508444444       3
     2923  2913  2915  2917    1  0.0000000000      0.6508444444       3
     2923  2913  2915  2928    1  0.0000000000      0.6508444444       3
     2912  2913  2923  2924    1  0.0000000000      0.6508444444       3
     2912  2913  2923  2925    1  0.0000000000      0.6508444444       3
     2914  2913  2923  2924    1  0.0000000000      0.5020800000       3
     2914  2913  2923  2925    1  0.0000000000      0.5439200000       3
     2915  2913  2923  2924    1  0.0000000000      0.5439200000       3
     2915  2913  2923  2925    1  0.0000000000      2.1756800000       3
     2909  2910  2912  2913    1  180.0000000000    15.1670000000      2
     2909  2910  2912  2928    1  180.0000000000    15.1670000000      2
     2911  2910  2912  2913    1  180.0000000000    15.1670000000      2
     2911  2910  2912  2928    1  180.0000000000    15.1670000000      2
     1399  1407  1405  1403    1  0.0000000000      0.6508444444       3
     1405  1407  1399  1401    1  0.0000000000      0.6508444444       3
     6800  6802  6804  6805    1  0.0000000000      0.5439200000       3
     6800  6802  6804  6806    1  0.0000000000      2.1756800000       3
     6800  6802  6804  6826    1  0.0000000000      2.1756800000       3
     6803  6802  6804  6805    1  0.0000000000      0.5020800000       3
     6803  6802  6804  6806    1  0.0000000000      0.5439200000       3
     6803  6802  6804  6826    1  0.0000000000      0.5439200000       3
     6829  6802  6804  6805    1  0.0000000000      0.6508444444       3
     6829  6802  6804  6806    1  0.0000000000      0.6508444444       3
     6829  6802  6804  6826    1  0.0000000000      0.6508444444       3
     6800  6802  6829  6799    1  180.0000000000    1.0041600000       2
     6800  6802  6829  6830    1  180.0000000000    1.0041600000       2
     6803  6802  6829  6799    1  0.0000000000      0.0000000000       1
     6803  6802  6829  6830    1  0.0000000000      0.0000000000       1
     6804  6802  6829  6799    1  180.0000000000    1.0041600000       2
     6804  6802  6829  6830    1  180.0000000000    1.0041600000       2
     1381  1385  1386  1387    1  0.0000000000      0.5439200000       3
     1381  1385  1386  1388    1  0.0000000000      0.5439200000       3
     1381  1385  1386  1389    1  0.0000000000      0.5439200000       3
     1390  1385  1386  1387    1  0.0000000000      0.6508444444       3
     1390  1385  1386  1388    1  0.0000000000      0.6508444444       3
     1390  1385  1386  1389    1  0.0000000000      0.6508444444       3
     1414  1385  1386  1387    1  0.0000000000      0.6508444444       3
     1414  1385  1386  1388    1  0.0000000000      0.6508444444       3
     1414  1385  1386  1389    1  0.0000000000      0.6508444444       3
     1381  1385  1390  1391    1  0.0000000000      0.0000000000       2
     1381  1385  1390  1411    1  180.0000000000    1.0041600000       2
     1386  1385  1390  1391    1  0.0000000000      0.0000000000       2
     1386  1385  1390  1411    1  180.0000000000    1.0041600000       2
     1414  1385  1390  1391    1  0.0000000000      0.0000000000       2
     1414  1385  1390  1411    1  180.0000000000    0.0000000000       2
     1381  1385  1414  1413    1  0.0000000000      0.0000000000       2
     1381  1385  1414  1415    1  180.0000000000    1.0041600000       2
     1386  1385  1414  1413    1  0.0000000000      0.0000000000       2
     1386  1385  1414  1415    1  180.0000000000    1.0041600000       2
     1390  1385  1414  1413    1  0.0000000000      0.0000000000       2
     1390  1385  1414  1415    1  180.0000000000    0.0000000000       2
     6818  6817  6816  6815    1  180.0000000000    15.1670000000      2
     6808  6817  6818  6819    1  0.0000000000      0.0000000000       2
     6808  6817  6818  6820    1  0.0000000000      0.0000000000       2
     6808  6817  6818  6821    1  0.0000000000      0.0000000000       2
     6816  6817  6808  6806    1  180.0000000000    15.1670000000      2
     6818  6817  6816  21      1  180.0000000000    15.1670000000      2
     6808  6817  6816  21      1  180.0000000000    15.1670000000      2
     6799  6829  6830  6795    1  180.0000000000    15.1670000000      2
     6799  6829  6830  6831    1  180.0000000000    15.1670000000      2
     6802  6829  6830  6795    1  180.0000000000    15.1670000000      2
     6802  6829  6830  6831    1  180.0000000000    15.1670000000      2
     1394  1410  1411  1390    1  180.0000000000    15.1670000000      2
     1394  1410  1411  1412    1  180.0000000000    15.1670000000      2
     1397  1410  1411  1390    1  180.0000000000    15.1670000000      2
     1397  1410  1411  1412    1  180.0000000000    15.1670000000      2
     6804  6806  6808  6809    1  180.0000000000    1.0041600000       2
     6804  6806  6808  6817    1  180.0000000000    1.0041600000       2
     6807  6806  6808  6809    1  0.0000000000      0.0000000000       1
     6807  6806  6808  6817    1  0.0000000000      0.0000000000       1
     6822  6806  6808  6809    1  180.0000000000    1.0041600000       2
     6822  6806  6808  6817    1  180.0000000000    1.0041600000       2
     6804  6806  6822  6809    1  0.0000000000      0.6508444444       3
     6804  6806  6822  6823    1  0.0000000000      0.6508444444       3
     6804  6806  6822  6824    1  0.0000000000      0.6508444444       3
     6807  6806  6822  6809    1  0.0000000000      0.6508444444       3
     6807  6806  6822  6823    1  0.0000000000      0.6508444444       3
     6807  6806  6822  6824    1  0.0000000000      0.6508444444       3
     6808  6806  6822  6809    1  0.0000000000      0.6508444444       3
     6808  6806  6822  6823    1  0.0000000000      0.6508444444       3
     6808  6806  6822  6824    1  0.0000000000      0.6508444444       3
     2910  2912  2913  2914    1  0.0000000000      0.0000000000       1
     2910  2912  2913  2915    1  180.0000000000    1.0041600000       2
     2910  2912  2913  2923    1  180.0000000000    1.0041600000       2
     2928  2912  2913  2914    1  0.0000000000      0.0000000000       1
     2928  2912  2913  2915    1  180.0000000000    1.0041600000       2
     2928  2912  2913  2923    1  180.0000000000    1.0041600000       2
     2910  2912  2928  2915    1  180.0000000000    15.1670000000      2
     2910  2912  2928  2929    1  180.0000000000    15.1670000000      2
     2913  2912  2928  2915    1  180.0000000000    15.1670000000      2
     2913  2912  2928  2929    1  180.0000000000    15.1670000000      2
     2913  2923  2921  2919    1  0.0000000000      2.1756800000       3
     2924  2923  2921  2919    1  0.0000000000      0.5439200000       3
     2925  2923  2921  2919    1  0.0000000000      2.1756800000       3
     2913  2923  2921  2922    1  0.0000000000      0.5439200000       3
     2924  2923  2921  2922    1  0.0000000000      0.5020800000       3
     2925  2923  2921  2922    1  0.0000000000      0.5439200000       3
     2921  2923  2913  2912    1  0.0000000000      0.6508444444       3
     2921  2923  2913  2914    1  0.0000000000      0.5439200000       3
     2921  2923  2913  2915    1  0.0000000000      2.1756800000       3
     2913  2923  2925  2917    1  0.0000000000      0.6508444444       3
     2913  2923  2925  2926    1  0.0000000000      0.6508444444       3
     2913  2923  2925  2927    1  0.0000000000      0.6508444444       3
     2921  2923  2925  2926    1  0.0000000000      0.6508444444       3
     2921  2923  2925  2927    1  0.0000000000      0.6508444444       3
     2924  2923  2925  2917    1  0.0000000000      0.5439200000       3
     2924  2923  2925  2926    1  0.0000000000      0.5020800000       3
     2924  2923  2925  2927    1  0.0000000000      0.5020800000       3
     2913  2923  2921  3227    1  0.0000000000      0.6508444444       3
     2924  2923  2921  3227    1  0.0000000000      0.6508444444       3
     2925  2923  2921  3227    1  0.0000000000      0.6508444444       3
     1401  1399  1397  1395    1  0.0000000000      2.1756800000       3
     1401  1399  1397  1398    1  0.0000000000      0.5439200000       3
     1401  1399  1397  1410    1  0.0000000000      0.6508444444       3
     1397  1399  1401  1402    1  0.0000000000      0.5439200000       3
     1397  1399  1401  1403    1  0.0000000000      2.1756800000       3
     1400  1399  1401  1402    1  0.0000000000      0.5020800000       3
     1400  1399  1401  1403    1  0.0000000000      0.5439200000       3
     1407  1399  1401  1402    1  0.0000000000      0.5439200000       3
     1407  1399  1401  1403    1  0.0000000000      2.1756800000       3
     1397  1399  1407  1405    1  0.0000000000      0.6508444444       3
     1397  1399  1407  1408    1  0.0000000000      0.6508444444       3
     1397  1399  1407  1409    1  0.0000000000      0.6508444444       3
     1400  1399  1407  1405    1  0.0000000000      0.5439200000       3
     1400  1399  1407  1408    1  0.0000000000      0.5020800000       3
     1400  1399  1407  1409    1  0.0000000000      0.5020800000       3
     1401  1399  1407  1408    1  0.0000000000      0.6508444444       3
     1401  1399  1407  1409    1  0.0000000000      0.6508444444       3
     1397  1399  1401  3503    1  0.0000000000      0.6508444444       3
     1400  1399  1401  3503    1  0.0000000000      0.6508444444       3
     1407  1399  1401  3503    1  0.0000000000      0.6508444444       3
     1392  1394  1395  1396    1  0.0000000000      0.0000000000       1
     1392  1394  1395  1397    1  180.0000000000    1.0041600000       2
     1392  1394  1395  1405    1  180.0000000000    1.0041600000       2
     1410  1394  1395  1396    1  0.0000000000      0.0000000000       1
     1410  1394  1395  1397    1  180.0000000000    1.0041600000       2
     1410  1394  1395  1405    1  180.0000000000    1.0041600000       2
     1392  1394  1410  1397    1  180.0000000000    15.1670000000      2
     1392  1394  1410  1411    1  180.0000000000    15.1670000000      2
     1395  1394  1410  1397    1  180.0000000000    15.1670000000      2
     1395  1394  1410  1411    1  180.0000000000    15.1670000000      2
     1403  1405  1395  1394    1  0.0000000000      0.6508444444       3
     1403  1405  1395  1396    1  0.0000000000      0.5439200000       3
     1403  1405  1395  1397    1  0.0000000000      2.1756800000       3
     1395  1405  1403  1401    1  0.0000000000      2.1756800000       3
     1406  1405  1403  1401    1  0.0000000000      0.5439200000       3
     1407  1405  1403  1401    1  0.0000000000      2.1756800000       3
     1395  1405  1403  1404    1  0.0000000000      0.5439200000       3
     1406  1405  1403  1404    1  0.0000000000      0.5020800000       3
     1407  1405  1403  1404    1  0.0000000000      0.5439200000       3
     1395  1405  1407  1399    1  0.0000000000      0.6508444444       3
     1395  1405  1407  1408    1  0.0000000000      0.6508444444       3
     1395  1405  1407  1409    1  0.0000000000      0.6508444444       3
     1403  1405  1407  1408    1  0.0000000000      0.6508444444       3
     1403  1405  1407  1409    1  0.0000000000      0.6508444444       3
     1406  1405  1407  1399    1  0.0000000000      0.5439200000       3
     1406  1405  1407  1408    1  0.0000000000      0.5020800000       3
     1406  1405  1407  1409    1  0.0000000000      0.5020800000       3
     1395  1405  1403  3504    1  0.0000000000      0.6508444444       3
     1406  1405  1403  3504    1  0.0000000000      0.6508444444       3
     1407  1405  1403  3504    1  0.0000000000      0.6508444444       3
     2908  2909  2910  2911    1  180.0000000000    15.1670000000      2
     2908  2909  2910  2912    1  180.0000000000    15.1670000000      2
     2931  2909  2910  2911    1  180.0000000000    15.1670000000      2
     2931  2909  2910  2912    1  180.0000000000    15.1670000000      2
     2908  2909  2931  2932    1  180.0000000000    4.1840000000       2
     2908  2909  2931  2966    1  180.0000000000    4.1840000000       2
     2910  2909  2931  2932    1  180.0000000000    4.1840000000       2
     2910  2909  2931  2966    1  180.0000000000    4.1840000000       2
     2909  2931  2932  2903    1  180.0000000000    15.1670000000      2
     2909  2931  2932  2933    1  180.0000000000    15.1670000000      2
     2966  2931  2932  2903    1  180.0000000000    15.1670000000      2
     2966  2931  2932  2933    1  180.0000000000    15.1670000000      2
     2909  2931  2966  2965    1  180.0000000000    15.1670000000      2
     2909  2931  2966  2967    1  180.0000000000    15.1670000000      2
     2932  2931  2966  2965    1  180.0000000000    15.1670000000      2
     2932  2931  2966  2967    1  180.0000000000    15.1670000000      2
     4418  4417  4421  4422    1  0.0000000000      0.5439200000       3
     4418  4417  4421  4426    1  0.0000000000      0.6508444444       3
     4418  4417  4421  4450    1  0.0000000000      0.6508444444       3
     4419  4417  4421  4422    1  0.0000000000      0.5439200000       3
     4419  4417  4421  4426    1  0.0000000000      0.6508444444       3
     4419  4417  4421  4450    1  0.0000000000      0.6508444444       3
     4420  4417  4421  4422    1  0.0000000000      0.5439200000       3
     4420  4417  4421  4426    1  0.0000000000      0.6508444444       3
     4420  4417  4421  4450    1  0.0000000000      0.6508444444       3
     3227  3228  3229  3220    1  180.0000000000    15.1670000000      2
     2919  3228  3227  2921    1  180.0000000000    15.1670000000      2
     3229  3228  2919  2920    1  0.0000000000      0.0000000000       1
     3227  3228  2919  2920    1  0.0000000000      0.0000000000       1
     3229  3228  2919  2921    1  180.0000000000    1.0041600000       2
     3227  3228  2919  2921    1  180.0000000000    1.0041600000       2
     3229  3228  2919  2917    1  180.0000000000    1.0041600000       2
     3227  3228  2919  2917    1  180.0000000000    1.0041600000       2
     3229  3228  3227  2921    1  180.0000000000    15.1670000000      2
     6806  6808  6809  6810    1  180.0000000000    15.1670000000      2
     6806  6808  6809  6822    1  180.0000000000    15.1670000000      2
     6817  6808  6809  6810    1  180.0000000000    15.1670000000      2
     6817  6808  6809  6822    1  180.0000000000    15.1670000000      2
     6806  6808  6817  6818    1  180.0000000000    15.1670000000      2
     6809  6808  6817  6816    1  180.0000000000    15.1670000000      2
     6809  6808  6817  6818    1  180.0000000000    15.1670000000      2
     2912  2928  2929  2908    1  180.0000000000    15.1670000000      2
     2912  2928  2929  2930    1  180.0000000000    15.1670000000      2
     2915  2928  2929  2908    1  180.0000000000    15.1670000000      2
     2915  2928  2929  2930    1  180.0000000000    15.1670000000      2
     1390  1391  1392  1393    1  180.0000000000    15.1670000000      2
     1390  1391  1392  1394    1  180.0000000000    15.1670000000      2
     1413  1391  1392  1393    1  180.0000000000    15.1670000000      2
     1413  1391  1392  1394    1  180.0000000000    15.1670000000      2
     1390  1391  1413  1414    1  180.0000000000    4.1840000000       2
     1390  1391  1413  1448    1  180.0000000000    4.1840000000       2
     1392  1391  1413  1414    1  180.0000000000    4.1840000000       2
     1392  1391  1413  1448    1  180.0000000000    4.1840000000       2
     1391  1392  1394  1395    1  180.0000000000    15.1670000000      2
     1391  1392  1394  1410    1  180.0000000000    15.1670000000      2
     1393  1392  1394  1395    1  180.0000000000    15.1670000000      2
     1393  1392  1394  1410    1  180.0000000000    15.1670000000      2
     1394  1395  1397  1398    1  0.0000000000      0.6508444444       3
     1394  1395  1397  1399    1  0.0000000000      0.6508444444       3
     1394  1395  1397  1410    1  0.0000000000      0.6508444444       3
     1396  1395  1397  1398    1  0.0000000000      0.6508444444       3
     1396  1395  1397  1399    1  0.0000000000      0.6508444444       3
     1396  1395  1397  1410    1  0.0000000000      0.6508444444       3
     1405  1395  1397  1398    1  0.0000000000      0.6508444444       3
     1405  1395  1397  1399    1  0.0000000000      0.6508444444       3
     1405  1395  1397  1410    1  0.0000000000      0.6508444444       3
     1394  1395  1405  1406    1  0.0000000000      0.6508444444       3
     1394  1395  1405  1407    1  0.0000000000      0.6508444444       3
     1396  1395  1405  1406    1  0.0000000000      0.5020800000       3
     1396  1395  1405  1407    1  0.0000000000      0.5439200000       3
     1397  1395  1405  1406    1  0.0000000000      0.5439200000       3
     1397  1395  1405  1407    1  0.0000000000      2.1756800000       3
     1395  1397  1399  1400    1  0.0000000000      0.5439200000       3
     1395  1397  1399  1407    1  0.0000000000      2.1756800000       3
     1398  1397  1399  1400    1  0.0000000000      0.5020800000       3
     1398  1397  1399  1407    1  0.0000000000      0.5439200000       3
     1410  1397  1399  1400    1  0.0000000000      0.6508444444       3
     1410  1397  1399  1407    1  0.0000000000      0.6508444444       3
     1395  1397  1410  1394    1  180.0000000000    1.0041600000       2
     1395  1397  1410  1411    1  180.0000000000    1.0041600000       2
     1398  1397  1410  1394    1  0.0000000000      0.0000000000       1
     1398  1397  1410  1411    1  0.0000000000      0.0000000000       1
     1399  1397  1410  1394    1  180.0000000000    1.0041600000       2
     1399  1397  1410  1411    1  180.0000000000    1.0041600000       2
     4450  4451  4453  4454    1  180.0000000000    15.1670000000      2
     4450  4451  4453  4483    1  180.0000000000    15.1670000000      2
     4452  4451  4453  4454    1  180.0000000000    15.1670000000      2
     4452  4451  4453  4483    1  180.0000000000    15.1670000000      2
     2913  2915  2917  2918    1  0.0000000000      0.5439200000       3
     2913  2915  2917  2925    1  0.0000000000      2.1756800000       3
     2916  2915  2917  2918    1  0.0000000000      0.5020800000       3
     2916  2915  2917  2925    1  0.0000000000      0.5439200000       3
     2928  2915  2917  2918    1  0.0000000000      0.6508444444       3
     2928  2915  2917  2925    1  0.0000000000      0.6508444444       3
     2913  2915  2928  2912    1  180.0000000000    1.0041600000       2
     2913  2915  2928  2929    1  180.0000000000    1.0041600000       2
     2916  2915  2928  2912    1  0.0000000000      0.0000000000       1
     2916  2915  2928  2929    1  0.0000000000      0.0000000000       1
     2917  2915  2928  2912    1  180.0000000000    1.0041600000       2
     2917  2915  2928  2929    1  180.0000000000    1.0041600000       2
     2917  2919  2921  2922    1  0.0000000000      0.6508444444       3
     2917  2919  2921  2923    1  0.0000000000      0.6508444444       3
     2920  2919  2921  2922    1  0.0000000000      0.6508444444       3
     3228  2919  2921  2922    1  0.0000000000      0.6508444444       3
     3228  2919  2921  3227    1  0.0000000000      0.6508444444       3
     2917  2919  2921  3227    1  0.0000000000      0.6508444444       3
     3222  3227  3228  3229    1  180.0000000000    15.1670000000      2
     3222  3227  3228  2919    1  180.0000000000    15.1670000000      2
     3228  3227  2921  2919    1  180.0000000000    1.0041600000       2
     3222  3227  2921  2919    1  180.0000000000    1.0041600000       2
     3228  3227  2921  2922    1  0.0000000000      0.0000000000       1
     3222  3227  2921  2922    1  0.0000000000      0.0000000000       1
     3228  3227  2921  2923    1  180.0000000000    1.0041600000       2
     3222  3227  2921  2923    1  180.0000000000    1.0041600000       2
     4766  4771  4772  4773    1  180.0000000000    15.1670000000      2
     4766  4771  4772  4794    1  180.0000000000    15.1670000000      2
     4792  4771  4772  4773    1  180.0000000000    15.1670000000      2
     4792  4771  4772  4794    1  180.0000000000    15.1670000000      2
     4766  4771  4792  4791    1  180.0000000000    15.1670000000      2
     4766  4771  4792  4793    1  180.0000000000    15.1670000000      2
     4772  4771  4792  4791    1  180.0000000000    15.1670000000      2
     4772  4771  4792  4793    1  180.0000000000    15.1670000000      2
     6767  6796  6797  6798    1  180.0000000000    15.1670000000      2
     6767  6796  6797  6799    1  180.0000000000    15.1670000000      2
     6795  6796  6797  6798    1  180.0000000000    15.1670000000      2
     6795  6796  6797  6799    1  180.0000000000    15.1670000000      2
     1417  1418  1420  1421    1  0.0000000000      0.6508444444       3
     1417  1418  1420  1422    1  0.0000000000      0.6508444444       3
     1417  1418  1420  1447    1  0.0000000000      0.6508444444       3
     1419  1418  1420  1421    1  0.0000000000      0.6508444444       3
     1419  1418  1420  1422    1  0.0000000000      0.6508444444       3
     1419  1418  1420  1447    1  0.0000000000      0.6508444444       3
     1442  1418  1420  1421    1  0.0000000000      0.6508444444       3
     1442  1418  1420  1422    1  0.0000000000      0.6508444444       3
     1442  1418  1420  1447    1  0.0000000000      0.6508444444       3
     1417  1418  1442  1440    1  0.0000000000      0.6508444444       3
     1417  1418  1442  1443    1  0.0000000000      0.6508444444       3
     1417  1418  1442  1444    1  0.0000000000      0.6508444444       3
     1419  1418  1442  1440    1  0.0000000000      0.5439200000       3
     1419  1418  1442  1443    1  0.0000000000      0.5020800000       3
     1419  1418  1442  1444    1  0.0000000000      0.5439200000       3
     1420  1418  1442  1440    1  0.0000000000      2.1756800000       3
     1420  1418  1442  1443    1  0.0000000000      0.5439200000       3
     1420  1418  1442  1444    1  0.0000000000      2.1756800000       3
     74    103   104   105     1  180.0000000000    15.1670000000      2
     74    103   104   106     1  180.0000000000    15.1670000000      2
     102   103   104   105     1  180.0000000000    15.1670000000      2
     102   103   104   106     1  180.0000000000    15.1670000000      2
     1385  1414  1415  1416    1  180.0000000000    15.1670000000      2
     1385  1414  1415  1417    1  180.0000000000    15.1670000000      2
     1413  1414  1415  1416    1  180.0000000000    15.1670000000      2
     1413  1414  1415  1417    1  180.0000000000    15.1670000000      2
     1417  1447  1448  1413    1  180.0000000000    15.1670000000      2
     1417  1447  1448  1449    1  180.0000000000    15.1670000000      2
     1420  1447  1448  1413    1  180.0000000000    15.1670000000      2
     1420  1447  1448  1449    1  180.0000000000    15.1670000000      2
     103   104   106   107     1  180.0000000000    15.1670000000      2
     103   104   106   136     1  180.0000000000    15.1670000000      2
     105   104   106   107     1  180.0000000000    15.1670000000      2
     105   104   106   136     1  180.0000000000    15.1670000000      2
     71    70    74    75      1  0.0000000000      0.5439200000       3
     71    70    74    79      1  0.0000000000      0.6508444444       3
     71    70    74    103     1  0.0000000000      0.6508444444       3
     72    70    74    75      1  0.0000000000      0.5439200000       3
     72    70    74    79      1  0.0000000000      0.6508444444       3
     72    70    74    103     1  0.0000000000      0.6508444444       3
     73    70    74    75      1  0.0000000000      0.5439200000       3
     73    70    74    79      1  0.0000000000      0.6508444444       3
     73    70    74    103     1  0.0000000000      0.6508444444       3
     122   123   124   115     1  180.0000000000    15.1670000000      2
     122   123   124   125     1  180.0000000000    15.1670000000      2
     1415  1417  1418  1419    1  0.0000000000      0.0000000000       1
     1415  1417  1418  1420    1  180.0000000000    1.0041600000       2
     1415  1417  1418  1442    1  180.0000000000    1.0041600000       2
     1447  1417  1418  1419    1  0.0000000000      0.0000000000       1
     1447  1417  1418  1420    1  180.0000000000    1.0041600000       2
     1447  1417  1418  1442    1  180.0000000000    1.0041600000       2
     1415  1417  1447  1420    1  180.0000000000    15.1670000000      2
     1415  1417  1447  1448    1  180.0000000000    15.1670000000      2
     1418  1417  1447  1420    1  180.0000000000    15.1670000000      2
     1418  1417  1447  1448    1  180.0000000000    15.1670000000      2
     115   116   117   118     1  180.0000000000    15.1670000000      2
     115   116   117   122     1  180.0000000000    15.1670000000      2
     129   116   117   118     1  180.0000000000    15.1670000000      2
     129   116   117   122     1  180.0000000000    15.1670000000      2
     115   116   129   113     1  180.0000000000    1.0041600000       2
     115   116   129   130     1  0.0000000000      0.0000000000       1
     115   116   129   131     1  180.0000000000    1.0041600000       2
     117   116   129   113     1  180.0000000000    1.0041600000       2
     117   116   129   130     1  0.0000000000      0.0000000000       1
     117   116   129   131     1  180.0000000000    1.0041600000       2
     117   122   123   124     1  180.0000000000    15.1670000000      2
     4762  4766  4767  4768    1  0.0000000000      0.5439200000       3
     4762  4766  4767  4769    1  0.0000000000      0.5439200000       3
     4762  4766  4767  4770    1  0.0000000000      0.5439200000       3
     4771  4766  4767  4768    1  0.0000000000      0.6508444444       3
     4771  4766  4767  4769    1  0.0000000000      0.6508444444       3
     4771  4766  4767  4770    1  0.0000000000      0.6508444444       3
     4795  4766  4767  4768    1  0.0000000000      0.6508444444       3
     4795  4766  4767  4769    1  0.0000000000      0.6508444444       3
     4795  4766  4767  4770    1  0.0000000000      0.6508444444       3
     4762  4766  4771  4772    1  0.0000000000      0.0000000000       2
     4762  4766  4771  4792    1  180.0000000000    1.0041600000       2
     4767  4766  4771  4772    1  0.0000000000      0.0000000000       2
     4767  4766  4771  4792    1  180.0000000000    1.0041600000       2
     4795  4766  4771  4772    1  0.0000000000      0.0000000000       2
     4795  4766  4771  4792    1  180.0000000000    0.0000000000       2
     4762  4766  4795  4794    1  0.0000000000      0.0000000000       2
     4762  4766  4795  4796    1  180.0000000000    1.0041600000       2
     4767  4766  4795  4794    1  0.0000000000      0.0000000000       2
     4767  4766  4795  4796    1  180.0000000000    1.0041600000       2
     4771  4766  4795  4794    1  0.0000000000      0.0000000000       2
     4771  4766  4795  4796    1  180.0000000000    0.0000000000       2
     107   109   111   112     1  0.0000000000      0.5439200000       3
     107   109   111   113     1  0.0000000000      2.1756800000       3
     107   109   111   133     1  0.0000000000      2.1756800000       3
     110   109   111   112     1  0.0000000000      0.5020800000       3
     110   109   111   113     1  0.0000000000      0.5439200000       3
     110   109   111   133     1  0.0000000000      0.5439200000       3
     136   109   111   112     1  0.0000000000      0.6508444444       3
     136   109   111   113     1  0.0000000000      0.6508444444       3
     136   109   111   133     1  0.0000000000      0.6508444444       3
     107   109   136   106     1  180.0000000000    1.0041600000       2
     107   109   136   137     1  180.0000000000    1.0041600000       2
     110   109   136   106     1  0.0000000000      0.0000000000       1
     110   109   136   137     1  0.0000000000      0.0000000000       1
     111   109   136   106     1  180.0000000000    1.0041600000       2
     111   109   136   137     1  180.0000000000    1.0041600000       2
     79    80    81    82      1  180.0000000000    15.1670000000      2
     79    80    81    83      1  180.0000000000    15.1670000000      2
     102   80    81    82      1  180.0000000000    15.1670000000      2
     102   80    81    83      1  180.0000000000    15.1670000000      2
     79    80    102   103     1  180.0000000000    4.1840000000       2
     79    80    102   137     1  180.0000000000    4.1840000000       2
     81    80    102   103     1  180.0000000000    4.1840000000       2
     81    80    102   137     1  180.0000000000    4.1840000000       2
     1418  1420  1422  1423    1  0.0000000000      0.5439200000       3
     1418  1420  1422  1424    1  0.0000000000      2.1756800000       3
     1418  1420  1422  1444    1  0.0000000000      2.1756800000       3
     1421  1420  1422  1423    1  0.0000000000      0.5020800000       3
     1421  1420  1422  1424    1  0.0000000000      0.5439200000       3
     1421  1420  1422  1444    1  0.0000000000      0.5439200000       3
     1447  1420  1422  1423    1  0.0000000000      0.6508444444       3
     1447  1420  1422  1424    1  0.0000000000      0.6508444444       3
     1447  1420  1422  1444    1  0.0000000000      0.6508444444       3
     1418  1420  1447  1417    1  180.0000000000    1.0041600000       2
     1418  1420  1447  1448    1  180.0000000000    1.0041600000       2
     1421  1420  1447  1417    1  0.0000000000      0.0000000000       1
     1421  1420  1447  1448    1  0.0000000000      0.0000000000       1
     1422  1420  1447  1417    1  180.0000000000    1.0041600000       2
     1422  1420  1447  1448    1  180.0000000000    1.0041600000       2
     80    102   103   74      1  180.0000000000    15.1670000000      2
     80    102   103   104     1  180.0000000000    15.1670000000      2
     137   102   103   74      1  180.0000000000    15.1670000000      2
     137   102   103   104     1  180.0000000000    15.1670000000      2
     80    102   137   136     1  180.0000000000    15.1670000000      2
     80    102   137   138     1  180.0000000000    15.1670000000      2
     103   102   137   136     1  180.0000000000    15.1670000000      2
     103   102   137   138     1  180.0000000000    15.1670000000      2
     4763  4762  4766  4767    1  0.0000000000      0.5439200000       3
     4763  4762  4766  4771    1  0.0000000000      0.6508444444       3
     4763  4762  4766  4795    1  0.0000000000      0.6508444444       3
     4764  4762  4766  4767    1  0.0000000000      0.5439200000       3
     4764  4762  4766  4771    1  0.0000000000      0.6508444444       3
     4764  4762  4766  4795    1  0.0000000000      0.6508444444       3
     4765  4762  4766  4767    1  0.0000000000      0.5439200000       3
     4765  4762  4766  4771    1  0.0000000000      0.6508444444       3
     4765  4762  4766  4795    1  0.0000000000      0.6508444444       3
     113   115   116   117     1  180.0000000000    15.1670000000      2
     113   115   116   129     1  180.0000000000    15.1670000000      2
     124   115   116   117     1  180.0000000000    15.1670000000      2
     124   115   116   129     1  180.0000000000    15.1670000000      2
     113   115   124   123     1  180.0000000000    15.1670000000      2
     113   115   124   125     1  180.0000000000    15.1670000000      2
     116   115   124   123     1  180.0000000000    15.1670000000      2
     116   115   124   125     1  180.0000000000    15.1670000000      2
     115   124   125   126     1  0.0000000000      0.0000000000       2
     115   124   125   127     1  0.0000000000      0.0000000000       2
     115   124   125   128     1  0.0000000000      0.0000000000       2
     123   124   125   126     1  0.0000000000      0.0000000000       2
     123   124   125   127     1  0.0000000000      0.0000000000       2
     123   124   125   128     1  0.0000000000      0.0000000000       2
     116   117   118   119     1  0.0000000000      0.0000000000       2
     116   117   118   120     1  0.0000000000      0.0000000000       2
     116   117   118   121     1  0.0000000000      0.0000000000       2
     122   117   118   119     1  0.0000000000      0.0000000000       2
     122   117   118   120     1  0.0000000000      0.0000000000       2
     122   117   118   121     1  0.0000000000      0.0000000000       2
     116   117   122   123     1  180.0000000000    15.1670000000      2
     118   117   122   123     1  180.0000000000    15.1670000000      2
     74    79    80    81      1  180.0000000000    15.1670000000      2
     74    79    80    102     1  180.0000000000    15.1670000000      2
     100   79    80    81      1  180.0000000000    15.1670000000      2
     100   79    80    102     1  180.0000000000    15.1670000000      2
     74    79    100   99      1  180.0000000000    15.1670000000      2
     74    79    100   101     1  180.0000000000    15.1670000000      2
     80    79    100   99      1  180.0000000000    15.1670000000      2
     80    79    100   101     1  180.0000000000    15.1670000000      2
     1391  1413  1414  1385    1  180.0000000000    15.1670000000      2
     1391  1413  1414  1415    1  180.0000000000    15.1670000000      2
     1448  1413  1414  1385    1  180.0000000000    15.1670000000      2
     1448  1413  1414  1415    1  180.0000000000    15.1670000000      2
     1391  1413  1448  1447    1  180.0000000000    15.1670000000      2
     1391  1413  1448  1449    1  180.0000000000    15.1670000000      2
     1414  1413  1448  1447    1  180.0000000000    15.1670000000      2
     1414  1413  1448  1449    1  180.0000000000    15.1670000000      2
     6773  6795  6796  6767    1  180.0000000000    15.1670000000      2
     6773  6795  6796  6797    1  180.0000000000    15.1670000000      2
     6830  6795  6796  6767    1  180.0000000000    15.1670000000      2
     6830  6795  6796  6797    1  180.0000000000    15.1670000000      2
     6773  6795  6830  6829    1  180.0000000000    15.1670000000      2
     6773  6795  6830  6831    1  180.0000000000    15.1670000000      2
     6796  6795  6830  6829    1  180.0000000000    15.1670000000      2
     6796  6795  6830  6831    1  180.0000000000    15.1670000000      2
     113   129   131   107     1  0.0000000000      2.1756800000       3
     113   129   131   132     1  0.0000000000      0.5439200000       3
     113   129   131   133     1  0.0000000000      2.1756800000       3
     116   129   131   107     1  0.0000000000      0.6508444444       3
     116   129   131   132     1  0.0000000000      0.6508444444       3
     116   129   131   133     1  0.0000000000      0.6508444444       3
     130   129   131   107     1  0.0000000000      0.5439200000       3
     130   129   131   132     1  0.0000000000      0.5020800000       3
     130   129   131   133     1  0.0000000000      0.5439200000       3
     70    74    75    76      1  0.0000000000      0.5439200000       3
     70    74    75    77      1  0.0000000000      0.5439200000       3
     70    74    75    78      1  0.0000000000      0.5439200000       3
     79    74    75    76      1  0.0000000000      0.6508444444       3
     79    74    75    77      1  0.0000000000      0.6508444444       3
     79    74    75    78      1  0.0000000000      0.6508444444       3
     103   74    75    76      1  0.0000000000      0.6508444444       3
     103   74    75    77      1  0.0000000000      0.6508444444       3
     103   74    75    78      1  0.0000000000      0.6508444444       3
     70    74    79    80      1  0.0000000000      0.0000000000       2
     70    74    79    100     1  180.0000000000    1.0041600000       2
     75    74    79    80      1  0.0000000000      0.0000000000       2
     75    74    79    100     1  180.0000000000    1.0041600000       2
     103   74    79    80      1  0.0000000000      0.0000000000       2
     103   74    79    100     1  180.0000000000    0.0000000000       2
     70    74    103   102     1  0.0000000000      0.0000000000       2
     70    74    103   104     1  180.0000000000    1.0041600000       2
     75    74    103   102     1  0.0000000000      0.0000000000       2
     75    74    103   104     1  180.0000000000    1.0041600000       2
     79    74    103   102     1  0.0000000000      0.0000000000       2
     79    74    103   104     1  180.0000000000    0.0000000000       2
     1414  1415  1417  1418    1  180.0000000000    15.1670000000      2
     1414  1415  1417  1447    1  180.0000000000    15.1670000000      2
     1416  1415  1417  1418    1  180.0000000000    15.1670000000      2
     1416  1415  1417  1447    1  180.0000000000    15.1670000000      2
     107   131   133   111     1  0.0000000000      0.6508444444       3
     107   131   133   134     1  0.0000000000      0.6508444444       3
     107   131   133   135     1  0.0000000000      0.6508444444       3
     129   131   133   111     1  0.0000000000      0.6508444444       3
     129   131   133   134     1  0.0000000000      0.6508444444       3
     129   131   133   135     1  0.0000000000      0.6508444444       3
     132   131   133   111     1  0.0000000000      0.5439200000       3
     132   131   133   134     1  0.0000000000      0.5020800000       3
     132   131   133   135     1  0.0000000000      0.5020800000       3
     106   107   109   110     1  0.0000000000      0.6508444444       3
     106   107   109   111     1  0.0000000000      0.6508444444       3
     106   107   109   136     1  0.0000000000      0.6508444444       3
     108   107   109   110     1  0.0000000000      0.6508444444       3
     108   107   109   111     1  0.0000000000      0.6508444444       3
     108   107   109   136     1  0.0000000000      0.6508444444       3
     131   107   109   110     1  0.0000000000      0.6508444444       3
     131   107   109   111     1  0.0000000000      0.6508444444       3
     131   107   109   136     1  0.0000000000      0.6508444444       3
     106   107   131   129     1  0.0000000000      0.6508444444       3
     106   107   131   132     1  0.0000000000      0.6508444444       3
     106   107   131   133     1  0.0000000000      0.6508444444       3
     108   107   131   129     1  0.0000000000      0.5439200000       3
     108   107   131   132     1  0.0000000000      0.5020800000       3
     108   107   131   133     1  0.0000000000      0.5439200000       3
     109   107   131   129     1  0.0000000000      2.1756800000       3
     109   107   131   132     1  0.0000000000      0.5439200000       3
     109   107   131   133     1  0.0000000000      2.1756800000       3
     111   113   115   116     1  180.0000000000    1.0041600000       2
     111   113   115   124     1  180.0000000000    1.0041600000       2
     114   113   115   116     1  0.0000000000      0.0000000000       1
     114   113   115   124     1  0.0000000000      0.0000000000       1
     129   113   115   116     1  180.0000000000    1.0041600000       2
     129   113   115   124     1  180.0000000000    1.0041600000       2
     111   113   129   116     1  0.0000000000      0.6508444444       3
     111   113   129   130     1  0.0000000000      0.6508444444       3
     111   113   129   131     1  0.0000000000      0.6508444444       3
     114   113   129   116     1  0.0000000000      0.6508444444       3
     114   113   129   130     1  0.0000000000      0.6508444444       3
     114   113   129   131     1  0.0000000000      0.6508444444       3
     115   113   129   116     1  0.0000000000      0.6508444444       3
     115   113   129   130     1  0.0000000000      0.6508444444       3
     115   113   129   131     1  0.0000000000      0.6508444444       3
     104   106   107   108     1  0.0000000000      0.0000000000       1
     104   106   107   109     1  180.0000000000    1.0041600000       2
     104   106   107   131     1  180.0000000000    1.0041600000       2
     136   106   107   108     1  0.0000000000      0.0000000000       1
     136   106   107   109     1  180.0000000000    1.0041600000       2
     136   106   107   131     1  180.0000000000    1.0041600000       2
     104   106   136   109     1  180.0000000000    15.1670000000      2
     104   106   136   137     1  180.0000000000    15.1670000000      2
     107   106   136   109     1  180.0000000000    15.1670000000      2
     107   106   136   137     1  180.0000000000    15.1670000000      2
     109   111   113   114     1  0.0000000000      0.5439200000       3
     109   111   113   115     1  0.0000000000      0.6508444444       3
     109   111   113   129     1  0.0000000000      2.1756800000       3
     112   111   113   114     1  0.0000000000      0.5020800000       3
     112   111   113   115     1  0.0000000000      0.6508444444       3
     112   111   113   129     1  0.0000000000      0.5439200000       3
     133   111   113   114     1  0.0000000000      0.5439200000       3
     133   111   113   115     1  0.0000000000      0.6508444444       3
     133   111   113   129     1  0.0000000000      2.1756800000       3
     109   111   133   131     1  0.0000000000      0.6508444444       3
     109   111   133   134     1  0.0000000000      0.6508444444       3
     109   111   133   135     1  0.0000000000      0.6508444444       3
     112   111   133   131     1  0.0000000000      0.5439200000       3
     112   111   133   134     1  0.0000000000      0.5020800000       3
     112   111   133   135     1  0.0000000000      0.5020800000       3
     113   111   133   131     1  0.0000000000      0.6508444444       3
     113   111   133   134     1  0.0000000000      0.6508444444       3
     113   111   133   135     1  0.0000000000      0.6508444444       3
     106   136   137   102     1  180.0000000000    15.1670000000      2
     106   136   137   138     1  180.0000000000    15.1670000000      2
     109   136   137   102     1  180.0000000000    15.1670000000      2
     109   136   137   138     1  180.0000000000    15.1670000000      2
     4417  4421  4422  4423    1  0.0000000000      0.5439200000       3
     4417  4421  4422  4424    1  0.0000000000      0.5439200000       3
     4417  4421  4422  4425    1  0.0000000000      0.5439200000       3
     4426  4421  4422  4423    1  0.0000000000      0.6508444444       3
     4426  4421  4422  4424    1  0.0000000000      0.6508444444       3
     4426  4421  4422  4425    1  0.0000000000      0.6508444444       3
     4450  4421  4422  4423    1  0.0000000000      0.6508444444       3
     4450  4421  4422  4424    1  0.0000000000      0.6508444444       3
     4450  4421  4422  4425    1  0.0000000000      0.6508444444       3
     4417  4421  4426  4427    1  0.0000000000      0.0000000000       2
     4417  4421  4426  4447    1  180.0000000000    1.0041600000       2
     4422  4421  4426  4427    1  0.0000000000      0.0000000000       2
     4422  4421  4426  4447    1  180.0000000000    1.0041600000       2
     4450  4421  4426  4427    1  0.0000000000      0.0000000000       2
     4450  4421  4426  4447    1  180.0000000000    0.0000000000       2
     4417  4421  4450  4449    1  0.0000000000      0.0000000000       2
     4417  4421  4450  4451    1  180.0000000000    1.0041600000       2
     4422  4421  4450  4449    1  0.0000000000      0.0000000000       2
     4422  4421  4450  4451    1  180.0000000000    1.0041600000       2
     4426  4421  4450  4449    1  0.0000000000      0.0000000000       2
     4426  4421  4450  4451    1  180.0000000000    0.0000000000       2
     4454  4478  4480  4458    1  0.0000000000      0.6508444444       3
     4454  4478  4480  4481    1  0.0000000000      0.6508444444       3
     4454  4478  4480  4482    1  0.0000000000      0.6508444444       3
     4476  4478  4480  4458    1  0.0000000000      0.6508444444       3
     4476  4478  4480  4481    1  0.0000000000      0.6508444444       3
     4476  4478  4480  4482    1  0.0000000000      0.6508444444       3
     4479  4478  4480  4458    1  0.0000000000      0.5439200000       3
     4479  4478  4480  4481    1  0.0000000000      0.5020800000       3
     4479  4478  4480  4482    1  0.0000000000      0.5020800000       3
     3455  3484  3485  3486    1  180.0000000000    15.1670000000      2
     3455  3484  3485  3487    1  180.0000000000    15.1670000000      2
     3483  3484  3485  3486    1  180.0000000000    15.1670000000      2
     3483  3484  3485  3487    1  180.0000000000    15.1670000000      2
     3452  3451  3455  3456    1  0.0000000000      0.5439200000       3
     3452  3451  3455  3460    1  0.0000000000      0.6508444444       3
     3452  3451  3455  3484    1  0.0000000000      0.6508444444       3
     3453  3451  3455  3456    1  0.0000000000      0.5439200000       3
     3453  3451  3455  3460    1  0.0000000000      0.6508444444       3
     3453  3451  3455  3484    1  0.0000000000      0.6508444444       3
     3454  3451  3455  3456    1  0.0000000000      0.5439200000       3
     3454  3451  3455  3460    1  0.0000000000      0.6508444444       3
     3454  3451  3455  3484    1  0.0000000000      0.6508444444       3
     3538  3546  3544  3542    1  0.0000000000      0.6508444444       3
     3544  3546  3538  3540    1  0.0000000000      0.6508444444       3
     3484  3485  3487  3488    1  180.0000000000    15.1670000000      2
     3484  3485  3487  3517    1  180.0000000000    15.1670000000      2
     3486  3485  3487  3488    1  180.0000000000    15.1670000000      2
     3486  3485  3487  3517    1  180.0000000000    15.1670000000      2
     3542  3544  3534  3533    1  0.0000000000      0.6508444444       3
     3542  3544  3534  3535    1  0.0000000000      0.5439200000       3
     3542  3544  3534  3536    1  0.0000000000      2.1756800000       3
     3534  3544  3542  3540    1  0.0000000000      2.1756800000       3
     3545  3544  3542  3540    1  0.0000000000      0.5439200000       3
     3546  3544  3542  3540    1  0.0000000000      2.1756800000       3
     3534  3544  3542  3543    1  0.0000000000      0.5439200000       3
     3545  3544  3542  3543    1  0.0000000000      0.5020800000       3
     3546  3544  3542  3543    1  0.0000000000      0.5439200000       3
     3534  3544  3546  3538    1  0.0000000000      0.6508444444       3
     3534  3544  3546  3547    1  0.0000000000      0.6508444444       3
     3534  3544  3546  3548    1  0.0000000000      0.6508444444       3
     3542  3544  3546  3547    1  0.0000000000      0.6508444444       3
     3542  3544  3546  3548    1  0.0000000000      0.6508444444       3
     3545  3544  3546  3538    1  0.0000000000      0.5439200000       3
     3545  3544  3546  3547    1  0.0000000000      0.5020800000       3
     3545  3544  3546  3548    1  0.0000000000      0.5020800000       3
     3534  3544  3542  2951    1  0.0000000000      0.6508444444       3
     3545  3544  3542  2951    1  0.0000000000      0.6508444444       3
     3546  3544  3542  2951    1  0.0000000000      0.6508444444       3
     3531  3533  3534  3535    1  0.0000000000      0.0000000000       1
     3531  3533  3534  3536    1  180.0000000000    1.0041600000       2
     3531  3533  3534  3544    1  180.0000000000    1.0041600000       2
     3549  3533  3534  3535    1  0.0000000000      0.0000000000       1
     3549  3533  3534  3536    1  180.0000000000    1.0041600000       2
     3549  3533  3534  3544    1  180.0000000000    1.0041600000       2
     3531  3533  3549  3536    1  180.0000000000    15.1670000000      2
     3531  3533  3549  3550    1  180.0000000000    15.1670000000      2
     3534  3533  3549  3536    1  180.0000000000    15.1670000000      2
     3534  3533  3549  3550    1  180.0000000000    15.1670000000      2
     3451  3455  3456  3457    1  0.0000000000      0.5439200000       3
     3451  3455  3456  3458    1  0.0000000000      0.5439200000       3
     3451  3455  3456  3459    1  0.0000000000      0.5439200000       3
     3460  3455  3456  3457    1  0.0000000000      0.6508444444       3
     3460  3455  3456  3458    1  0.0000000000      0.6508444444       3
     3460  3455  3456  3459    1  0.0000000000      0.6508444444       3
     3484  3455  3456  3457    1  0.0000000000      0.6508444444       3
     3484  3455  3456  3458    1  0.0000000000      0.6508444444       3
     3484  3455  3456  3459    1  0.0000000000      0.6508444444       3
     3451  3455  3460  3461    1  0.0000000000      0.0000000000       2
     3451  3455  3460  3481    1  180.0000000000    1.0041600000       2
     3456  3455  3460  3461    1  0.0000000000      0.0000000000       2
     3456  3455  3460  3481    1  180.0000000000    1.0041600000       2
     3484  3455  3460  3461    1  0.0000000000      0.0000000000       2
     3484  3455  3460  3481    1  180.0000000000    0.0000000000       2
     3451  3455  3484  3483    1  0.0000000000      0.0000000000       2
     3451  3455  3484  3485    1  180.0000000000    1.0041600000       2
     3456  3455  3484  3483    1  0.0000000000      0.0000000000       2
     3456  3455  3484  3485    1  180.0000000000    1.0041600000       2
     3460  3455  3484  3483    1  0.0000000000      0.0000000000       2
     3460  3455  3484  3485    1  180.0000000000    0.0000000000       2
     3498  3503  3504  3505    1  180.0000000000    15.1670000000      2
     1401  3503  3504  1403    1  180.0000000000    15.1670000000      2
     3498  3503  1401  1402    1  0.0000000000      0.0000000000       1
     3504  3503  1401  1402    1  0.0000000000      0.0000000000       1
     3498  3503  1401  1403    1  180.0000000000    1.0041600000       2
     3504  3503  1401  1403    1  180.0000000000    1.0041600000       2
     3498  3503  1401  1399    1  180.0000000000    1.0041600000       2
     3504  3503  1401  1399    1  180.0000000000    1.0041600000       2
     3498  3503  3504  1403    1  180.0000000000    15.1670000000      2
     3461  3483  3484  3455    1  180.0000000000    15.1670000000      2
     3461  3483  3484  3485    1  180.0000000000    15.1670000000      2
     3518  3483  3484  3455    1  180.0000000000    15.1670000000      2
     3518  3483  3484  3485    1  180.0000000000    15.1670000000      2
     3461  3483  3518  3517    1  180.0000000000    15.1670000000      2
     3461  3483  3518  3519    1  180.0000000000    15.1670000000      2
     3484  3483  3518  3517    1  180.0000000000    15.1670000000      2
     3484  3483  3518  3519    1  180.0000000000    15.1670000000      2
     3536  3538  3540  3541    1  0.0000000000      0.5439200000       3
     3536  3538  3540  3542    1  0.0000000000      2.1756800000       3
     3539  3538  3540  3541    1  0.0000000000      0.5020800000       3
     3539  3538  3540  3542    1  0.0000000000      0.5439200000       3
     3546  3538  3540  3541    1  0.0000000000      0.5439200000       3
     3546  3538  3540  3542    1  0.0000000000      2.1756800000       3
     3536  3538  3546  3544    1  0.0000000000      0.6508444444       3
     3536  3538  3546  3547    1  0.0000000000      0.6508444444       3
     3536  3538  3546  3548    1  0.0000000000      0.6508444444       3
     3539  3538  3546  3544    1  0.0000000000      0.5439200000       3
     3539  3538  3546  3547    1  0.0000000000      0.5020800000       3
     3539  3538  3546  3548    1  0.0000000000      0.5020800000       3
     3540  3538  3546  3547    1  0.0000000000      0.6508444444       3
     3540  3538  3546  3548    1  0.0000000000      0.6508444444       3
     3540  3538  3536  3534    1  0.0000000000      2.1756800000       3
     3540  3538  3536  3537    1  0.0000000000      0.5439200000       3
     3540  3538  3536  3549    1  0.0000000000      0.6508444444       3
     3539  3538  3540  2952    1  0.0000000000      0.6508444444       3
     3546  3538  3540  2952    1  0.0000000000      0.6508444444       3
     3536  3538  3540  2952    1  0.0000000000      0.6508444444       3
     3530  3531  3533  3534    1  180.0000000000    15.1670000000      2
     3530  3531  3533  3549    1  180.0000000000    15.1670000000      2
     3532  3531  3533  3534    1  180.0000000000    15.1670000000      2
     3532  3531  3533  3549    1  180.0000000000    15.1670000000      2
     1405  1403  1401  1402    1  0.0000000000      0.6508444444       3
     1405  1403  1401  3503    1  0.0000000000      0.6508444444       3
     3504  1403  1401  1402    1  0.0000000000      0.6508444444       3
     2952  2953  2944  2942    1  180.0000000000    15.1670000000      2
     2954  2953  2952  2951    1  180.0000000000    15.1670000000      2
     2944  2953  2954  2955    1  0.0000000000      0.0000000000       2
     2944  2953  2954  2956    1  0.0000000000      0.0000000000       2
     2944  2953  2954  2957    1  0.0000000000      0.0000000000       2
     2944  2953  2952  3540    1  180.0000000000    15.1670000000      2
     2954  2953  2952  3540    1  180.0000000000    15.1670000000      2
     1399  1401  1403  1404    1  0.0000000000      0.6508444444       3
     1399  1401  1403  1405    1  0.0000000000      0.6508444444       3
     1402  1401  1403  1404    1  0.0000000000      0.6508444444       3
     3503  1401  1403  1404    1  0.0000000000      0.6508444444       3
     3503  1401  1403  3504    1  0.0000000000      0.6508444444       3
     1399  1401  1403  3504    1  0.0000000000      0.6508444444       3
     3503  3504  3505  3496    1  180.0000000000    15.1670000000      2
     3505  3504  3503  1401    1  180.0000000000    15.1670000000      2
     3503  3504  1403  1401    1  180.0000000000    1.0041600000       2
     3505  3504  1403  1401    1  180.0000000000    1.0041600000       2
     3503  3504  1403  1404    1  0.0000000000      0.0000000000       1
     3505  3504  1403  1404    1  0.0000000000      0.0000000000       1
     3503  3504  1403  1405    1  180.0000000000    1.0041600000       2
     3505  3504  1403  1405    1  180.0000000000    1.0041600000       2
     3485  3487  3488  3489    1  0.0000000000      0.0000000000       1
     3485  3487  3488  3490    1  180.0000000000    1.0041600000       2
     3485  3487  3488  3512    1  180.0000000000    1.0041600000       2
     3517  3487  3488  3489    1  0.0000000000      0.0000000000       1
     3517  3487  3488  3490    1  180.0000000000    1.0041600000       2
     3517  3487  3488  3512    1  180.0000000000    1.0041600000       2
     3485  3487  3517  3490    1  180.0000000000    15.1670000000      2
     3485  3487  3517  3518    1  180.0000000000    15.1670000000      2
     3488  3487  3517  3490    1  180.0000000000    15.1670000000      2
     3488  3487  3517  3518    1  180.0000000000    15.1670000000      2
     3503  3498  3497  3510    1  180.0000000000    15.1670000000      2
     3497  3498  3499  3500    1  0.0000000000      0.0000000000       2
     3497  3498  3499  3501    1  0.0000000000      0.0000000000       2
     3497  3498  3499  3502    1  0.0000000000      0.0000000000       2
     3497  3498  3503  3504    1  180.0000000000    15.1670000000      2
     3499  3498  3503  3504    1  180.0000000000    15.1670000000      2
     3497  3498  3503  1401    1  180.0000000000    15.1670000000      2
     3499  3498  3503  1401    1  180.0000000000    15.1670000000      2
     3538  3540  3542  3543    1  0.0000000000      0.6508444444       3
     3538  3540  3542  3544    1  0.0000000000      0.6508444444       3
     3541  3540  3542  3543    1  0.0000000000      0.6508444444       3
     2952  3540  3542  3543    1  0.0000000000      0.6508444444       3
     2952  3540  3542  2951    1  0.0000000000      0.6508444444       3
     3538  3540  3542  2951    1  0.0000000000      0.6508444444       3
     3487  3488  3490  3491    1  0.0000000000      0.6508444444       3
     3487  3488  3490  3492    1  0.0000000000      0.6508444444       3
     3487  3488  3490  3517    1  0.0000000000      0.6508444444       3
     3489  3488  3490  3491    1  0.0000000000      0.6508444444       3
     3489  3488  3490  3492    1  0.0000000000      0.6508444444       3
     3489  3488  3490  3517    1  0.0000000000      0.6508444444       3
     3512  3488  3490  3491    1  0.0000000000      0.6508444444       3
     3512  3488  3490  3492    1  0.0000000000      0.6508444444       3
     3512  3488  3490  3517    1  0.0000000000      0.6508444444       3
     3487  3488  3512  3510    1  0.0000000000      0.6508444444       3
     3487  3488  3512  3513    1  0.0000000000      0.6508444444       3
     3487  3488  3512  3514    1  0.0000000000      0.6508444444       3
     3489  3488  3512  3510    1  0.0000000000      0.5439200000       3
     3489  3488  3512  3513    1  0.0000000000      0.5020800000       3
     3489  3488  3512  3514    1  0.0000000000      0.5439200000       3
     3490  3488  3512  3510    1  0.0000000000      2.1756800000       3
     3490  3488  3512  3513    1  0.0000000000      0.5439200000       3
     3490  3488  3512  3514    1  0.0000000000      2.1756800000       3
     2942  2944  2945  2946    1  180.0000000000    15.1670000000      2
     2942  2944  2945  2958    1  180.0000000000    15.1670000000      2
     2953  2944  2945  2946    1  180.0000000000    15.1670000000      2
     2953  2944  2945  2958    1  180.0000000000    15.1670000000      2
     2942  2944  2953  2954    1  180.0000000000    15.1670000000      2
     2945  2944  2953  2952    1  180.0000000000    15.1670000000      2
     2945  2944  2953  2954    1  180.0000000000    15.1670000000      2
     3487  3517  3518  3483    1  180.0000000000    15.1670000000      2
     3487  3517  3518  3519    1  180.0000000000    15.1670000000      2
     3490  3517  3518  3483    1  180.0000000000    15.1670000000      2
     3490  3517  3518  3519    1  180.0000000000    15.1670000000      2
     3455  3460  3461  3462    1  180.0000000000    15.1670000000      2
     3455  3460  3461  3483    1  180.0000000000    15.1670000000      2
     3481  3460  3461  3462    1  180.0000000000    15.1670000000      2
     3481  3460  3461  3483    1  180.0000000000    15.1670000000      2
     3455  3460  3481  3480    1  180.0000000000    15.1670000000      2
     3455  3460  3481  3482    1  180.0000000000    15.1670000000      2
     3461  3460  3481  3480    1  180.0000000000    15.1670000000      2
     3461  3460  3481  3482    1  180.0000000000    15.1670000000      2
     3460  3461  3462  3463    1  180.0000000000    15.1670000000      2
     3460  3461  3462  3464    1  180.0000000000    15.1670000000      2
     3483  3461  3462  3463    1  180.0000000000    15.1670000000      2
     3483  3461  3462  3464    1  180.0000000000    15.1670000000      2
     3460  3461  3483  3484    1  180.0000000000    4.1840000000       2
     3460  3461  3483  3518    1  180.0000000000    4.1840000000       2
     3462  3461  3483  3484    1  180.0000000000    4.1840000000       2
     3462  3461  3483  3518    1  180.0000000000    4.1840000000       2
     2951  2946  2945  2958    1  180.0000000000    15.1670000000      2
     2945  2946  2947  2948    1  0.0000000000      0.0000000000       2
     2945  2946  2947  2949    1  0.0000000000      0.0000000000       2
     2945  2946  2947  2950    1  0.0000000000      0.0000000000       2
     2945  2946  2951  2952    1  180.0000000000    15.1670000000      2
     2947  2946  2951  2952    1  180.0000000000    15.1670000000      2
     2945  2946  2951  3542    1  180.0000000000    15.1670000000      2
     2947  2946  2951  3542    1  180.0000000000    15.1670000000      2
     3529  3530  3531  3532    1  180.0000000000    15.1670000000      2
     3529  3530  3531  3533    1  180.0000000000    15.1670000000      2
     3552  3530  3531  3532    1  180.0000000000    15.1670000000      2
     3552  3530  3531  3533    1  180.0000000000    15.1670000000      2
     3529  3530  3552  3553    1  180.0000000000    4.1840000000       2
     3529  3530  3552  3587    1  180.0000000000    4.1840000000       2
     3531  3530  3552  3553    1  180.0000000000    4.1840000000       2
     3531  3530  3552  3587    1  180.0000000000    4.1840000000       2
     2944  2945  2946  2947    1  180.0000000000    15.1670000000      2
     2944  2945  2946  2951    1  180.0000000000    15.1670000000      2
     2958  2945  2946  2947    1  180.0000000000    15.1670000000      2
     2944  2945  2958  2942    1  180.0000000000    1.0041600000       2
     2944  2945  2958  2959    1  0.0000000000      0.0000000000       1
     2944  2945  2958  2960    1  180.0000000000    1.0041600000       2
     2946  2945  2958  2942    1  180.0000000000    1.0041600000       2
     2946  2945  2958  2959    1  0.0000000000      0.0000000000       1
     2946  2945  2958  2960    1  180.0000000000    1.0041600000       2
     2946  2951  2952  2953    1  180.0000000000    15.1670000000      2
     2946  2951  2952  3540    1  180.0000000000    15.1670000000      2
     2946  2951  3542  3543    1  0.0000000000      0.0000000000       1
     2952  2951  3542  3543    1  0.0000000000      0.0000000000       1
     2946  2951  3542  3544    1  180.0000000000    1.0041600000       2
     2952  2951  3542  3544    1  180.0000000000    1.0041600000       2
     2946  2951  3542  3540    1  180.0000000000    1.0041600000       2
     2952  2951  3542  3540    1  180.0000000000    1.0041600000       2
     2951  2952  2953  2944    1  180.0000000000    15.1670000000      2
     3540  2952  2951  3542    1  180.0000000000    15.1670000000      2
     2951  2952  3540  3541    1  0.0000000000      0.0000000000       1
     2953  2952  3540  3541    1  0.0000000000      0.0000000000       1
     2951  2952  3540  3542    1  180.0000000000    1.0041600000       2
     2953  2952  3540  3542    1  180.0000000000    1.0041600000       2
     2951  2952  3540  3538    1  180.0000000000    1.0041600000       2
     2953  2952  3540  3538    1  180.0000000000    1.0041600000       2
     2953  2952  2951  3542    1  180.0000000000    15.1670000000      2
     3520  3524  3525  3526    1  0.0000000000      0.5439200000       3
     3520  3524  3525  3527    1  0.0000000000      0.5439200000       3
     3520  3524  3525  3528    1  0.0000000000      0.5439200000       3
     3529  3524  3525  3526    1  0.0000000000      0.6508444444       3
     3529  3524  3525  3527    1  0.0000000000      0.6508444444       3
     3529  3524  3525  3528    1  0.0000000000      0.6508444444       3
     3553  3524  3525  3526    1  0.0000000000      0.6508444444       3
     3553  3524  3525  3527    1  0.0000000000      0.6508444444       3
     3553  3524  3525  3528    1  0.0000000000      0.6508444444       3
     3520  3524  3529  3530    1  0.0000000000      0.0000000000       2
     3520  3524  3529  3550    1  180.0000000000    1.0041600000       2
     3525  3524  3529  3530    1  0.0000000000      0.0000000000       2
     3525  3524  3529  3550    1  180.0000000000    1.0041600000       2
     3553  3524  3529  3530    1  0.0000000000      0.0000000000       2
     3553  3524  3529  3550    1  180.0000000000    0.0000000000       2
     3520  3524  3553  3552    1  0.0000000000      0.0000000000       2
     3520  3524  3553  3554    1  180.0000000000    1.0041600000       2
     3525  3524  3553  3552    1  0.0000000000      0.0000000000       2
     3525  3524  3553  3554    1  180.0000000000    1.0041600000       2
     3529  3524  3553  3552    1  0.0000000000      0.0000000000       2
     3529  3524  3553  3554    1  180.0000000000    0.0000000000       2
     3534  3536  3538  3539    1  0.0000000000      0.5439200000       3
     3534  3536  3538  3546    1  0.0000000000      2.1756800000       3
     3537  3536  3538  3539    1  0.0000000000      0.5020800000       3
     3537  3536  3538  3546    1  0.0000000000      0.5439200000       3
     3549  3536  3538  3539    1  0.0000000000      0.6508444444       3
     3549  3536  3538  3546    1  0.0000000000      0.6508444444       3
     3534  3536  3549  3533    1  180.0000000000    1.0041600000       2
     3534  3536  3549  3550    1  180.0000000000    1.0041600000       2
     3537  3536  3549  3533    1  0.0000000000      0.0000000000       1
     3537  3536  3549  3550    1  0.0000000000      0.0000000000       1
     3538  3536  3549  3533    1  180.0000000000    1.0041600000       2
     3538  3536  3549  3550    1  180.0000000000    1.0041600000       2
     3475  3473  3471  3472    1  0.0000000000      0.6508444444       3
     3475  3473  3471  813     1  0.0000000000      0.6508444444       3
     812   3473  3471  3472    1  0.0000000000      0.6508444444       3
     807   812   813   814     1  180.0000000000    15.1670000000      2
     807   812   813   3471    1  180.0000000000    15.1670000000      2
     807   812   3473  3474    1  0.0000000000      0.0000000000       1
     813   812   3473  3474    1  0.0000000000      0.0000000000       1
     807   812   3473  3475    1  180.0000000000    1.0041600000       2
     813   812   3473  3475    1  180.0000000000    1.0041600000       2
     807   812   3473  3471    1  180.0000000000    1.0041600000       2
     813   812   3473  3471    1  180.0000000000    1.0041600000       2
     3464  3480  3481  3460    1  180.0000000000    15.1670000000      2
     3464  3480  3481  3482    1  180.0000000000    15.1670000000      2
     3467  3480  3481  3460    1  180.0000000000    15.1670000000      2
     3467  3480  3481  3482    1  180.0000000000    15.1670000000      2
     3948  3958  3960  3952    1  0.0000000000      0.6508444444       3
     3948  3958  3960  3961    1  0.0000000000      0.6508444444       3
     3948  3958  3960  3962    1  0.0000000000      0.6508444444       3
     3956  3958  3960  3961    1  0.0000000000      0.6508444444       3
     3956  3958  3960  3962    1  0.0000000000      0.6508444444       3
     3959  3958  3960  3952    1  0.0000000000      0.5439200000       3
     3959  3958  3960  3961    1  0.0000000000      0.5020800000       3
     3959  3958  3960  3962    1  0.0000000000      0.5020800000       3
     3948  3958  3956  3954    1  0.0000000000      2.1756800000       3
     3959  3958  3956  3954    1  0.0000000000      0.5439200000       3
     3960  3958  3956  3954    1  0.0000000000      2.1756800000       3
     3948  3958  3956  3957    1  0.0000000000      0.5439200000       3
     3959  3958  3956  3957    1  0.0000000000      0.5020800000       3
     3960  3958  3956  3957    1  0.0000000000      0.5439200000       3
     3956  3958  3948  3947    1  0.0000000000      0.6508444444       3
     3956  3958  3948  3949    1  0.0000000000      0.5439200000       3
     3956  3958  3948  3950    1  0.0000000000      2.1756800000       3
     3959  3958  3956  3021    1  0.0000000000      0.6508444444       3
     3960  3958  3956  3021    1  0.0000000000      0.6508444444       3
     3948  3958  3956  3021    1  0.0000000000      0.6508444444       3
     3465  3467  3469  3470    1  0.0000000000      0.5439200000       3
     3465  3467  3469  3477    1  0.0000000000      2.1756800000       3
     3468  3467  3469  3470    1  0.0000000000      0.5020800000       3
     3468  3467  3469  3477    1  0.0000000000      0.5439200000       3
     3480  3467  3469  3470    1  0.0000000000      0.6508444444       3
     3480  3467  3469  3477    1  0.0000000000      0.6508444444       3
     3465  3467  3480  3464    1  180.0000000000    1.0041600000       2
     3465  3467  3480  3481    1  180.0000000000    1.0041600000       2
     3468  3467  3480  3464    1  0.0000000000      0.0000000000       1
     3468  3467  3480  3481    1  0.0000000000      0.0000000000       1
     3469  3467  3480  3464    1  180.0000000000    1.0041600000       2
     3469  3467  3480  3481    1  180.0000000000    1.0041600000       2
     812   813   814   805     1  180.0000000000    15.1670000000      2
     3471  813   812   3473    1  180.0000000000    15.1670000000      2
     812   813   3471  3469    1  180.0000000000    1.0041600000       2
     814   813   3471  3469    1  180.0000000000    1.0041600000       2
     812   813   3471  3472    1  0.0000000000      0.0000000000       1
     814   813   3471  3472    1  0.0000000000      0.0000000000       1
     812   813   3471  3473    1  180.0000000000    1.0041600000       2
     814   813   3471  3473    1  180.0000000000    1.0041600000       2
     814   813   812   3473    1  180.0000000000    15.1670000000      2
     3943  3944  3945  3946    1  180.0000000000    15.1670000000      2
     3943  3944  3945  3947    1  180.0000000000    15.1670000000      2
     3966  3944  3945  3946    1  180.0000000000    15.1670000000      2
     3966  3944  3945  3947    1  180.0000000000    15.1670000000      2
     3943  3944  3966  3967    1  180.0000000000    4.1840000000       2
     3943  3944  3966  4001    1  180.0000000000    4.1840000000       2
     3945  3944  3966  3967    1  180.0000000000    4.1840000000       2
     3945  3944  3966  4001    1  180.0000000000    4.1840000000       2
     3944  3966  3967  3938    1  180.0000000000    15.1670000000      2
     3944  3966  3967  3968    1  180.0000000000    15.1670000000      2
     4001  3966  3967  3938    1  180.0000000000    15.1670000000      2
     4001  3966  3967  3968    1  180.0000000000    15.1670000000      2
     3944  3966  4001  4000    1  180.0000000000    15.1670000000      2
     3944  3966  4001  4002    1  180.0000000000    15.1670000000      2
     3967  3966  4001  4000    1  180.0000000000    15.1670000000      2
     3967  3966  4001  4002    1  180.0000000000    15.1670000000      2
     816   815   814   813     1  0.0000000000      0.0000000000       2
     817   815   814   813     1  0.0000000000      0.0000000000       2
     818   815   814   813     1  0.0000000000      0.0000000000       2
     3944  3945  3947  3948    1  180.0000000000    15.1670000000      2
     3944  3945  3947  3963    1  180.0000000000    15.1670000000      2
     3946  3945  3947  3948    1  180.0000000000    15.1670000000      2
     3946  3945  3947  3963    1  180.0000000000    15.1670000000      2
     813   814   805   803     1  180.0000000000    15.1670000000      2
     815   814   813   812     1  180.0000000000    15.1670000000      2
     805   814   815   816     1  0.0000000000      0.0000000000       2
     805   814   815   817     1  0.0000000000      0.0000000000       2
     805   814   815   818     1  0.0000000000      0.0000000000       2
     805   814   813   3471    1  180.0000000000    15.1670000000      2
     815   814   813   3471    1  180.0000000000    15.1670000000      2
     3469  3471  3473  3474    1  0.0000000000      0.6508444444       3
     3469  3471  3473  3475    1  0.0000000000      0.6508444444       3
     3472  3471  3473  3474    1  0.0000000000      0.6508444444       3
     813   3471  3473  3474    1  0.0000000000      0.6508444444       3
     813   3471  3473  812     1  0.0000000000      0.6508444444       3
     3469  3471  3473  812     1  0.0000000000      0.6508444444       3
     1420  1422  1424  1425    1  0.0000000000      0.5439200000       3
     1420  1422  1424  1426    1  0.0000000000      0.6508444444       3
     1420  1422  1424  1440    1  0.0000000000      2.1756800000       3
     1423  1422  1424  1425    1  0.0000000000      0.5020800000       3
     1423  1422  1424  1426    1  0.0000000000      0.6508444444       3
     1423  1422  1424  1440    1  0.0000000000      0.5439200000       3
     1444  1422  1424  1425    1  0.0000000000      0.5439200000       3
     1444  1422  1424  1426    1  0.0000000000      0.6508444444       3
     1444  1422  1424  1440    1  0.0000000000      2.1756800000       3
     1420  1422  1444  1442    1  0.0000000000      0.6508444444       3
     1420  1422  1444  1445    1  0.0000000000      0.6508444444       3
     1420  1422  1444  1446    1  0.0000000000      0.6508444444       3
     1423  1422  1444  1442    1  0.0000000000      0.5439200000       3
     1423  1422  1444  1445    1  0.0000000000      0.5020800000       3
     1423  1422  1444  1446    1  0.0000000000      0.5020800000       3
     1424  1422  1444  1442    1  0.0000000000      0.6508444444       3
     1424  1422  1444  1445    1  0.0000000000      0.6508444444       3
     1424  1422  1444  1446    1  0.0000000000      0.6508444444       3
     3533  3549  3550  3529    1  180.0000000000    15.1670000000      2
     3533  3549  3550  3551    1  180.0000000000    15.1670000000      2
     3536  3549  3550  3529    1  180.0000000000    15.1670000000      2
     3536  3549  3550  3551    1  180.0000000000    15.1670000000      2
     3461  3462  3464  3465    1  180.0000000000    15.1670000000      2
     3461  3462  3464  3480    1  180.0000000000    15.1670000000      2
     3463  3462  3464  3465    1  180.0000000000    15.1670000000      2
     3463  3462  3464  3480    1  180.0000000000    15.1670000000      2
     3473  3475  3465  3464    1  0.0000000000      0.6508444444       3
     3473  3475  3465  3466    1  0.0000000000      0.5439200000       3
     3473  3475  3465  3467    1  0.0000000000      2.1756800000       3
     3465  3475  3473  3471    1  0.0000000000      2.1756800000       3
     3476  3475  3473  3471    1  0.0000000000      0.5439200000       3
     3477  3475  3473  3471    1  0.0000000000      2.1756800000       3
     3465  3475  3473  3474    1  0.0000000000      0.5439200000       3
     3476  3475  3473  3474    1  0.0000000000      0.5020800000       3
     3477  3475  3473  3474    1  0.0000000000      0.5439200000       3
     3465  3475  3477  3469    1  0.0000000000      0.6508444444       3
     3465  3475  3477  3478    1  0.0000000000      0.6508444444       3
     3465  3475  3477  3479    1  0.0000000000      0.6508444444       3
     3473  3475  3477  3478    1  0.0000000000      0.6508444444       3
     3473  3475  3477  3479    1  0.0000000000      0.6508444444       3
     3476  3475  3477  3469    1  0.0000000000      0.5439200000       3
     3476  3475  3477  3478    1  0.0000000000      0.5020800000       3
     3476  3475  3477  3479    1  0.0000000000      0.5020800000       3
     3465  3475  3473  812     1  0.0000000000      0.6508444444       3
     3476  3475  3473  812     1  0.0000000000      0.6508444444       3
     3477  3475  3473  812     1  0.0000000000      0.6508444444       3
     3464  3465  3467  3468    1  0.0000000000      0.6508444444       3
     3464  3465  3467  3469    1  0.0000000000      0.6508444444       3
     3464  3465  3467  3480    1  0.0000000000      0.6508444444       3
     3466  3465  3467  3468    1  0.0000000000      0.6508444444       3
     3466  3465  3467  3469    1  0.0000000000      0.6508444444       3
     3466  3465  3467  3480    1  0.0000000000      0.6508444444       3
     3475  3465  3467  3468    1  0.0000000000      0.6508444444       3
     3475  3465  3467  3469    1  0.0000000000      0.6508444444       3
     3475  3465  3467  3480    1  0.0000000000      0.6508444444       3
     3464  3465  3475  3476    1  0.0000000000      0.6508444444       3
     3464  3465  3475  3477    1  0.0000000000      0.6508444444       3
     3466  3465  3475  3476    1  0.0000000000      0.5020800000       3
     3466  3465  3475  3477    1  0.0000000000      0.5439200000       3
     3467  3465  3475  3476    1  0.0000000000      0.5439200000       3
     3467  3465  3475  3477    1  0.0000000000      2.1756800000       3
     812   807   806   819     1  180.0000000000    15.1670000000      2
     806   807   808   809     1  0.0000000000      0.0000000000       2
     806   807   808   810     1  0.0000000000      0.0000000000       2
     806   807   808   811     1  0.0000000000      0.0000000000       2
     806   807   812   813     1  180.0000000000    15.1670000000      2
     808   807   812   813     1  180.0000000000    15.1670000000      2
     806   807   812   3473    1  180.0000000000    15.1670000000      2
     808   807   812   3473    1  180.0000000000    15.1670000000      2
     3952  3960  3958  3956    1  0.0000000000      0.6508444444       3
     3958  3960  3952  3954    1  0.0000000000      0.6508444444       3
     809   808   807   812     1  0.0000000000      0.0000000000       2
     810   808   807   812     1  0.0000000000      0.0000000000       2
     811   808   807   812     1  0.0000000000      0.0000000000       2
     3471  3469  3467  3465    1  0.0000000000      2.1756800000       3
     3471  3469  3467  3468    1  0.0000000000      0.5439200000       3
     3471  3469  3467  3480    1  0.0000000000      0.6508444444       3
     3467  3469  3471  3472    1  0.0000000000      0.5439200000       3
     3467  3469  3471  3473    1  0.0000000000      2.1756800000       3
     3470  3469  3471  3472    1  0.0000000000      0.5020800000       3
     3470  3469  3471  3473    1  0.0000000000      0.5439200000       3
     3477  3469  3471  3472    1  0.0000000000      0.5439200000       3
     3477  3469  3471  3473    1  0.0000000000      2.1756800000       3
     3467  3469  3477  3475    1  0.0000000000      0.6508444444       3
     3467  3469  3477  3478    1  0.0000000000      0.6508444444       3
     3467  3469  3477  3479    1  0.0000000000      0.6508444444       3
     3470  3469  3477  3475    1  0.0000000000      0.5439200000       3
     3470  3469  3477  3478    1  0.0000000000      0.5020800000       3
     3470  3469  3477  3479    1  0.0000000000      0.5020800000       3
     3471  3469  3477  3478    1  0.0000000000      0.6508444444       3
     3471  3469  3477  3479    1  0.0000000000      0.6508444444       3
     3467  3469  3471  813     1  0.0000000000      0.6508444444       3
     3470  3469  3471  813     1  0.0000000000      0.6508444444       3
     3477  3469  3471  813     1  0.0000000000      0.6508444444       3
     3970  4000  4001  3966    1  180.0000000000    15.1670000000      2
     3970  4000  4001  4002    1  180.0000000000    15.1670000000      2
     3973  4000  4001  3966    1  180.0000000000    15.1670000000      2
     3973  4000  4001  4002    1  180.0000000000    15.1670000000      2
     3469  3477  3475  3473    1  0.0000000000      0.6508444444       3
     3475  3477  3469  3471    1  0.0000000000      0.6508444444       3
     3971  3973  3975  3976    1  0.0000000000      0.5439200000       3
     3971  3973  3975  3977    1  0.0000000000      2.1756800000       3
     3971  3973  3975  3997    1  0.0000000000      2.1756800000       3
     3974  3973  3975  3976    1  0.0000000000      0.5020800000       3
     3974  3973  3975  3977    1  0.0000000000      0.5439200000       3
     3974  3973  3975  3997    1  0.0000000000      0.5439200000       3
     4000  3973  3975  3976    1  0.0000000000      0.6508444444       3
     4000  3973  3975  3977    1  0.0000000000      0.6508444444       3
     4000  3973  3975  3997    1  0.0000000000      0.6508444444       3
     3971  3973  4000  3970    1  180.0000000000    1.0041600000       2
     3971  3973  4000  4001    1  180.0000000000    1.0041600000       2
     3974  3973  4000  3970    1  0.0000000000      0.0000000000       1
     3974  3973  4000  4001    1  0.0000000000      0.0000000000       1
     3975  3973  4000  3970    1  180.0000000000    1.0041600000       2
     3975  3973  4000  4001    1  180.0000000000    1.0041600000       2
     3462  3464  3465  3466    1  0.0000000000      0.0000000000       1
     3462  3464  3465  3467    1  180.0000000000    1.0041600000       2
     3462  3464  3465  3475    1  180.0000000000    1.0041600000       2
     3480  3464  3465  3466    1  0.0000000000      0.0000000000       1
     3480  3464  3465  3467    1  180.0000000000    1.0041600000       2
     3480  3464  3465  3475    1  180.0000000000    1.0041600000       2
     3462  3464  3480  3467    1  180.0000000000    15.1670000000      2
     3462  3464  3480  3481    1  180.0000000000    15.1670000000      2
     3465  3464  3480  3467    1  180.0000000000    15.1670000000      2
     3465  3464  3480  3481    1  180.0000000000    15.1670000000      2
     3524  3529  3530  3531    1  180.0000000000    15.1670000000      2
     3524  3529  3530  3552    1  180.0000000000    15.1670000000      2
     3550  3529  3530  3531    1  180.0000000000    15.1670000000      2
     3550  3529  3530  3552    1  180.0000000000    15.1670000000      2
     3524  3529  3550  3549    1  180.0000000000    15.1670000000      2
     3524  3529  3550  3551    1  180.0000000000    15.1670000000      2
     3530  3529  3550  3549    1  180.0000000000    15.1670000000      2
     3530  3529  3550  3551    1  180.0000000000    15.1670000000      2
     3973  3975  3977  3978    1  0.0000000000      0.5439200000       3
     3973  3975  3977  3979    1  0.0000000000      0.6508444444       3
     3973  3975  3977  3993    1  0.0000000000      2.1756800000       3
     3976  3975  3977  3978    1  0.0000000000      0.5020800000       3
     3976  3975  3977  3979    1  0.0000000000      0.6508444444       3
     3976  3975  3977  3993    1  0.0000000000      0.5439200000       3
     3997  3975  3977  3978    1  0.0000000000      0.5439200000       3
     3997  3975  3977  3979    1  0.0000000000      0.6508444444       3
     3997  3975  3977  3993    1  0.0000000000      2.1756800000       3
     3973  3975  3997  3995    1  0.0000000000      0.6508444444       3
     3973  3975  3997  3998    1  0.0000000000      0.6508444444       3
     3973  3975  3997  3999    1  0.0000000000      0.6508444444       3
     3976  3975  3997  3995    1  0.0000000000      0.5439200000       3
     3976  3975  3997  3998    1  0.0000000000      0.5020800000       3
     3976  3975  3997  3999    1  0.0000000000      0.5020800000       3
     3977  3975  3997  3995    1  0.0000000000      0.6508444444       3
     3977  3975  3997  3998    1  0.0000000000      0.6508444444       3
     3977  3975  3997  3999    1  0.0000000000      0.6508444444       3
     3533  3534  3536  3537    1  0.0000000000      0.6508444444       3
     3533  3534  3536  3538    1  0.0000000000      0.6508444444       3
     3533  3534  3536  3549    1  0.0000000000      0.6508444444       3
     3535  3534  3536  3537    1  0.0000000000      0.6508444444       3
     3535  3534  3536  3538    1  0.0000000000      0.6508444444       3
     3535  3534  3536  3549    1  0.0000000000      0.6508444444       3
     3544  3534  3536  3537    1  0.0000000000      0.6508444444       3
     3544  3534  3536  3538    1  0.0000000000      0.6508444444       3
     3544  3534  3536  3549    1  0.0000000000      0.6508444444       3
     3533  3534  3544  3545    1  0.0000000000      0.6508444444       3
     3533  3534  3544  3546    1  0.0000000000      0.6508444444       3
     3535  3534  3544  3545    1  0.0000000000      0.5020800000       3
     3535  3534  3544  3546    1  0.0000000000      0.5439200000       3
     3536  3534  3544  3545    1  0.0000000000      0.5439200000       3
     3536  3534  3544  3546    1  0.0000000000      2.1756800000       3
     2955  2954  2953  2952    1  0.0000000000      0.0000000000       2
     2956  2954  2953  2952    1  0.0000000000      0.0000000000       2
     2957  2954  2953  2952    1  0.0000000000      0.0000000000       2
     3573  3574  3565  3563    1  180.0000000000    15.1670000000      2
     3575  3574  3573  3572    1  180.0000000000    15.1670000000      2
     3565  3574  3575  3576    1  0.0000000000      0.0000000000       2
     3565  3574  3575  3577    1  0.0000000000      0.0000000000       2
     3565  3574  3575  3578    1  0.0000000000      0.0000000000       2
     3565  3574  3573  6576    1  180.0000000000    15.1670000000      2
     3575  3574  3573  6576    1  180.0000000000    15.1670000000      2
     3563  3565  3566  3567    1  180.0000000000    15.1670000000      2
     3563  3565  3566  3579    1  180.0000000000    15.1670000000      2
     3574  3565  3566  3567    1  180.0000000000    15.1670000000      2
     3574  3565  3566  3579    1  180.0000000000    15.1670000000      2
     3563  3565  3574  3575    1  180.0000000000    15.1670000000      2
     3566  3565  3574  3573    1  180.0000000000    15.1670000000      2
     3566  3565  3574  3575    1  180.0000000000    15.1670000000      2
     3572  3573  3574  3565    1  180.0000000000    15.1670000000      2
     6576  3573  3572  6578    1  180.0000000000    15.1670000000      2
     3572  3573  6576  6574    1  180.0000000000    1.0041600000       2
     3574  3573  6576  6574    1  180.0000000000    1.0041600000       2
     3572  3573  6576  6577    1  0.0000000000      0.0000000000       1
     3574  3573  6576  6577    1  0.0000000000      0.0000000000       1
     3572  3573  6576  6578    1  180.0000000000    1.0041600000       2
     3574  3573  6576  6578    1  180.0000000000    1.0041600000       2
     3574  3573  3572  6578    1  180.0000000000    15.1670000000      2
     3556  3586  3587  3552    1  180.0000000000    15.1670000000      2
     3556  3586  3587  3588    1  180.0000000000    15.1670000000      2
     3559  3586  3587  3552    1  180.0000000000    15.1670000000      2
     3559  3586  3587  3588    1  180.0000000000    15.1670000000      2
     6574  6576  6578  6579    1  0.0000000000      0.6508444444       3
     6574  6576  6578  6580    1  0.0000000000      0.6508444444       3
     6577  6576  6578  6579    1  0.0000000000      0.6508444444       3
     3573  6576  6578  6579    1  0.0000000000      0.6508444444       3
     3573  6576  6578  3572    1  0.0000000000      0.6508444444       3
     6574  6576  6578  3572    1  0.0000000000      0.6508444444       3
     3565  3566  3567  3568    1  180.0000000000    15.1670000000      2
     3565  3566  3567  3572    1  180.0000000000    15.1670000000      2
     3579  3566  3567  3568    1  180.0000000000    15.1670000000      2
     3565  3566  3579  3563    1  180.0000000000    1.0041600000       2
     3565  3566  3579  3580    1  0.0000000000      0.0000000000       1
     3565  3566  3579  3581    1  180.0000000000    1.0041600000       2
     3567  3566  3579  3563    1  180.0000000000    1.0041600000       2
     3567  3566  3579  3580    1  0.0000000000      0.0000000000       1
     3567  3566  3579  3581    1  180.0000000000    1.0041600000       2
     6569  6570  6572  6573    1  0.0000000000      0.6508444444       3
     6569  6570  6572  6574    1  0.0000000000      0.6508444444       3
     6569  6570  6572  6585    1  0.0000000000      0.6508444444       3
     6571  6570  6572  6573    1  0.0000000000      0.6508444444       3
     6571  6570  6572  6574    1  0.0000000000      0.6508444444       3
     6571  6570  6572  6585    1  0.0000000000      0.6508444444       3
     6580  6570  6572  6573    1  0.0000000000      0.6508444444       3
     6580  6570  6572  6574    1  0.0000000000      0.6508444444       3
     6580  6570  6572  6585    1  0.0000000000      0.6508444444       3
     6569  6570  6580  6581    1  0.0000000000      0.6508444444       3
     6569  6570  6580  6582    1  0.0000000000      0.6508444444       3
     6571  6570  6580  6581    1  0.0000000000      0.5020800000       3
     6571  6570  6580  6582    1  0.0000000000      0.5439200000       3
     6572  6570  6580  6581    1  0.0000000000      0.5439200000       3
     6572  6570  6580  6582    1  0.0000000000      2.1756800000       3
     3554  3556  3557  3558    1  0.0000000000      0.0000000000       1
     3554  3556  3557  3559    1  180.0000000000    1.0041600000       2
     3554  3556  3557  3581    1  180.0000000000    1.0041600000       2
     3586  3556  3557  3558    1  0.0000000000      0.0000000000       1
     3586  3556  3557  3559    1  180.0000000000    1.0041600000       2
     3586  3556  3557  3581    1  180.0000000000    1.0041600000       2
     3554  3556  3586  3559    1  180.0000000000    15.1670000000      2
     3554  3556  3586  3587    1  180.0000000000    15.1670000000      2
     3557  3556  3586  3559    1  180.0000000000    15.1670000000      2
     3557  3556  3586  3587    1  180.0000000000    15.1670000000      2
     3576  3575  3574  3573    1  0.0000000000      0.0000000000       2
     3577  3575  3574  3573    1  0.0000000000      0.0000000000       2
     3578  3575  3574  3573    1  0.0000000000      0.0000000000       2
     3557  3559  3561  3562    1  0.0000000000      0.5439200000       3
     3557  3559  3561  3563    1  0.0000000000      2.1756800000       3
     3557  3559  3561  3583    1  0.0000000000      2.1756800000       3
     3560  3559  3561  3562    1  0.0000000000      0.5020800000       3
     3560  3559  3561  3563    1  0.0000000000      0.5439200000       3
     3560  3559  3561  3583    1  0.0000000000      0.5439200000       3
     3586  3559  3561  3562    1  0.0000000000      0.6508444444       3
     3586  3559  3561  3563    1  0.0000000000      0.6508444444       3
     3586  3559  3561  3583    1  0.0000000000      0.6508444444       3
     3557  3559  3586  3556    1  180.0000000000    1.0041600000       2
     3557  3559  3586  3587    1  180.0000000000    1.0041600000       2
     3560  3559  3586  3556    1  0.0000000000      0.0000000000       1
     3560  3559  3586  3587    1  0.0000000000      0.0000000000       1
     3561  3559  3586  3556    1  180.0000000000    1.0041600000       2
     3561  3559  3586  3587    1  180.0000000000    1.0041600000       2
     3561  3563  3565  3566    1  180.0000000000    1.0041600000       2
     3561  3563  3565  3574    1  180.0000000000    1.0041600000       2
     3564  3563  3565  3566    1  0.0000000000      0.0000000000       1
     3564  3563  3565  3574    1  0.0000000000      0.0000000000       1
     3579  3563  3565  3566    1  180.0000000000    1.0041600000       2
     3579  3563  3565  3574    1  180.0000000000    1.0041600000       2
     3561  3563  3579  3566    1  0.0000000000      0.6508444444       3
     3561  3563  3579  3580    1  0.0000000000      0.6508444444       3
     3561  3563  3579  3581    1  0.0000000000      0.6508444444       3
     3564  3563  3579  3566    1  0.0000000000      0.6508444444       3
     3564  3563  3579  3580    1  0.0000000000      0.6508444444       3
     3564  3563  3579  3581    1  0.0000000000      0.6508444444       3
     3565  3563  3579  3566    1  0.0000000000      0.6508444444       3
     3565  3563  3579  3580    1  0.0000000000      0.6508444444       3
     3565  3563  3579  3581    1  0.0000000000      0.6508444444       3
     3559  3561  3563  3564    1  0.0000000000      0.5439200000       3
     3559  3561  3563  3565    1  0.0000000000      0.6508444444       3
     3559  3561  3563  3579    1  0.0000000000      2.1756800000       3
     3562  3561  3563  3564    1  0.0000000000      0.5020800000       3
     3562  3561  3563  3565    1  0.0000000000      0.6508444444       3
     3562  3561  3563  3579    1  0.0000000000      0.5439200000       3
     3583  3561  3563  3564    1  0.0000000000      0.5439200000       3
     3583  3561  3563  3565    1  0.0000000000      0.6508444444       3
     3583  3561  3563  3579    1  0.0000000000      2.1756800000       3
     3559  3561  3583  3581    1  0.0000000000      0.6508444444       3
     3559  3561  3583  3584    1  0.0000000000      0.6508444444       3
     3559  3561  3583  3585    1  0.0000000000      0.6508444444       3
     3562  3561  3583  3581    1  0.0000000000      0.5439200000       3
     3562  3561  3583  3584    1  0.0000000000      0.5020800000       3
     3562  3561  3583  3585    1  0.0000000000      0.5020800000       3
     3563  3561  3583  3581    1  0.0000000000      0.6508444444       3
     3563  3561  3583  3584    1  0.0000000000      0.6508444444       3
     3563  3561  3583  3585    1  0.0000000000      0.6508444444       3
     3556  3557  3559  3560    1  0.0000000000      0.6508444444       3
     3556  3557  3559  3561    1  0.0000000000      0.6508444444       3
     3556  3557  3559  3586    1  0.0000000000      0.6508444444       3
     3558  3557  3559  3560    1  0.0000000000      0.6508444444       3
     3558  3557  3559  3561    1  0.0000000000      0.6508444444       3
     3558  3557  3559  3586    1  0.0000000000      0.6508444444       3
     3581  3557  3559  3560    1  0.0000000000      0.6508444444       3
     3581  3557  3559  3561    1  0.0000000000      0.6508444444       3
     3581  3557  3559  3586    1  0.0000000000      0.6508444444       3
     3556  3557  3581  3579    1  0.0000000000      0.6508444444       3
     3556  3557  3581  3582    1  0.0000000000      0.6508444444       3
     3556  3557  3581  3583    1  0.0000000000      0.6508444444       3
     3558  3557  3581  3579    1  0.0000000000      0.5439200000       3
     3558  3557  3581  3582    1  0.0000000000      0.5020800000       3
     3558  3557  3581  3583    1  0.0000000000      0.5439200000       3
     3559  3557  3581  3579    1  0.0000000000      2.1756800000       3
     3559  3557  3581  3582    1  0.0000000000      0.5439200000       3
     3559  3557  3581  3583    1  0.0000000000      2.1756800000       3
     3563  3579  3581  3557    1  0.0000000000      2.1756800000       3
     3563  3579  3581  3582    1  0.0000000000      0.5439200000       3
     3563  3579  3581  3583    1  0.0000000000      2.1756800000       3
     3566  3579  3581  3557    1  0.0000000000      0.6508444444       3
     3566  3579  3581  3582    1  0.0000000000      0.6508444444       3
     3566  3579  3581  3583    1  0.0000000000      0.6508444444       3
     3580  3579  3581  3557    1  0.0000000000      0.5439200000       3
     3580  3579  3581  3582    1  0.0000000000      0.5020800000       3
     3580  3579  3581  3583    1  0.0000000000      0.5439200000       3
     3557  3581  3583  3561    1  0.0000000000      0.6508444444       3
     3557  3581  3583  3584    1  0.0000000000      0.6508444444       3
     3557  3581  3583  3585    1  0.0000000000      0.6508444444       3
     3579  3581  3583  3561    1  0.0000000000      0.6508444444       3
     3579  3581  3583  3584    1  0.0000000000      0.6508444444       3
     3579  3581  3583  3585    1  0.0000000000      0.6508444444       3
     3582  3581  3583  3561    1  0.0000000000      0.5439200000       3
     3582  3581  3583  3584    1  0.0000000000      0.5020800000       3
     3582  3581  3583  3585    1  0.0000000000      0.5020800000       3
     6570  6572  6574  6575    1  0.0000000000      0.5439200000       3
     6570  6572  6574  6582    1  0.0000000000      2.1756800000       3
     6573  6572  6574  6575    1  0.0000000000      0.5020800000       3
     6573  6572  6574  6582    1  0.0000000000      0.5439200000       3
     6585  6572  6574  6575    1  0.0000000000      0.6508444444       3
     6585  6572  6574  6582    1  0.0000000000      0.6508444444       3
     6570  6572  6585  6569    1  180.0000000000    1.0041600000       2
     6570  6572  6585  6586    1  180.0000000000    1.0041600000       2
     6573  6572  6585  6569    1  0.0000000000      0.0000000000       1
     6573  6572  6585  6586    1  0.0000000000      0.0000000000       1
     6574  6572  6585  6569    1  180.0000000000    1.0041600000       2
     6574  6572  6585  6586    1  180.0000000000    1.0041600000       2
     6576  6574  6572  6570    1  0.0000000000      2.1756800000       3
     6576  6574  6572  6573    1  0.0000000000      0.5439200000       3
     6576  6574  6572  6585    1  0.0000000000      0.6508444444       3
     6572  6574  6576  6577    1  0.0000000000      0.5439200000       3
     6572  6574  6576  6578    1  0.0000000000      2.1756800000       3
     6575  6574  6576  6577    1  0.0000000000      0.5020800000       3
     6575  6574  6576  6578    1  0.0000000000      0.5439200000       3
     6582  6574  6576  6577    1  0.0000000000      0.5439200000       3
     6582  6574  6576  6578    1  0.0000000000      2.1756800000       3
     6572  6574  6582  6580    1  0.0000000000      0.6508444444       3
     6572  6574  6582  6583    1  0.0000000000      0.6508444444       3
     6572  6574  6582  6584    1  0.0000000000      0.6508444444       3
     6575  6574  6582  6580    1  0.0000000000      0.5439200000       3
     6575  6574  6582  6583    1  0.0000000000      0.5020800000       3
     6575  6574  6582  6584    1  0.0000000000      0.5020800000       3
     6576  6574  6582  6583    1  0.0000000000      0.6508444444       3
     6576  6574  6582  6584    1  0.0000000000      0.6508444444       3
     6572  6574  6576  3573    1  0.0000000000      0.6508444444       3
     6575  6574  6576  3573    1  0.0000000000      0.6508444444       3
     6582  6574  6576  3573    1  0.0000000000      0.6508444444       3
     6569  6585  6586  6565    1  180.0000000000    15.1670000000      2
     6569  6585  6586  6587    1  180.0000000000    15.1670000000      2
     6572  6585  6586  6565    1  180.0000000000    15.1670000000      2
     6572  6585  6586  6587    1  180.0000000000    15.1670000000      2
     1364  1365  1366  1357    1  180.0000000000    15.1670000000      2
     1366  1365  1364  3126    1  180.0000000000    15.1670000000      2
     1364  1365  3128  3129    1  0.0000000000      0.0000000000       1
     1366  1365  3128  3129    1  0.0000000000      0.0000000000       1
     1364  1365  3128  3130    1  180.0000000000    1.0041600000       2
     1366  1365  3128  3130    1  180.0000000000    1.0041600000       2
     1364  1365  3128  3126    1  180.0000000000    1.0041600000       2
     1366  1365  3128  3126    1  180.0000000000    1.0041600000       2
     3530  3552  3553  3524    1  180.0000000000    15.1670000000      2
     3530  3552  3553  3554    1  180.0000000000    15.1670000000      2
     3587  3552  3553  3524    1  180.0000000000    15.1670000000      2
     3587  3552  3553  3554    1  180.0000000000    15.1670000000      2
     3530  3552  3587  3586    1  180.0000000000    15.1670000000      2
     3530  3552  3587  3588    1  180.0000000000    15.1670000000      2
     3553  3552  3587  3586    1  180.0000000000    15.1670000000      2
     3553  3552  3587  3588    1  180.0000000000    15.1670000000      2
     6580  6582  6574  6576    1  0.0000000000      0.6508444444       3
     6574  6582  6580  6578    1  0.0000000000      0.6508444444       3
     1364  1359  1358  1371    1  180.0000000000    15.1670000000      2
     1358  1359  1360  1361    1  0.0000000000      0.0000000000       2
     1358  1359  1360  1362    1  0.0000000000      0.0000000000       2
     1358  1359  1360  1363    1  0.0000000000      0.0000000000       2
     1358  1359  1364  1365    1  180.0000000000    15.1670000000      2
     1360  1359  1364  1365    1  180.0000000000    15.1670000000      2
     1358  1359  1364  3126    1  180.0000000000    15.1670000000      2
     1360  1359  1364  3126    1  180.0000000000    15.1670000000      2
     3352  3354  3356  3357    1  0.0000000000      0.5439200000       3
     3352  3354  3356  3358    1  0.0000000000      0.6508444444       3
     3352  3354  3356  3372    1  0.0000000000      2.1756800000       3
     3355  3354  3356  3357    1  0.0000000000      0.5020800000       3
     3355  3354  3356  3358    1  0.0000000000      0.6508444444       3
     3355  3354  3356  3372    1  0.0000000000      0.5439200000       3
     3376  3354  3356  3357    1  0.0000000000      0.5439200000       3
     3376  3354  3356  3358    1  0.0000000000      0.6508444444       3
     3376  3354  3356  3372    1  0.0000000000      2.1756800000       3
     3352  3354  3376  3374    1  0.0000000000      0.6508444444       3
     3352  3354  3376  3377    1  0.0000000000      0.6508444444       3
     3352  3354  3376  3378    1  0.0000000000      0.6508444444       3
     3355  3354  3376  3374    1  0.0000000000      0.5439200000       3
     3355  3354  3376  3377    1  0.0000000000      0.5020800000       3
     3355  3354  3376  3378    1  0.0000000000      0.5020800000       3
     3356  3354  3376  3374    1  0.0000000000      0.6508444444       3
     3356  3354  3376  3377    1  0.0000000000      0.6508444444       3
     3356  3354  3376  3378    1  0.0000000000      0.6508444444       3
     6578  6580  6570  6569    1  0.0000000000      0.6508444444       3
     6578  6580  6570  6571    1  0.0000000000      0.5439200000       3
     6578  6580  6570  6572    1  0.0000000000      2.1756800000       3
     6570  6580  6578  6576    1  0.0000000000      2.1756800000       3
     6581  6580  6578  6576    1  0.0000000000      0.5439200000       3
     6582  6580  6578  6576    1  0.0000000000      2.1756800000       3
     6570  6580  6578  6579    1  0.0000000000      0.5439200000       3
     6581  6580  6578  6579    1  0.0000000000      0.5020800000       3
     6582  6580  6578  6579    1  0.0000000000      0.5439200000       3
     6570  6580  6582  6574    1  0.0000000000      0.6508444444       3
     6570  6580  6582  6583    1  0.0000000000      0.6508444444       3
     6570  6580  6582  6584    1  0.0000000000      0.6508444444       3
     6578  6580  6582  6583    1  0.0000000000      0.6508444444       3
     6578  6580  6582  6584    1  0.0000000000      0.6508444444       3
     6581  6580  6582  6574    1  0.0000000000      0.5439200000       3
     6581  6580  6582  6583    1  0.0000000000      0.5020800000       3
     6581  6580  6582  6584    1  0.0000000000      0.5020800000       3
     6570  6580  6578  3572    1  0.0000000000      0.6508444444       3
     6581  6580  6578  3572    1  0.0000000000      0.6508444444       3
     6582  6580  6578  3572    1  0.0000000000      0.6508444444       3
     3130  3132  3124  3126    1  0.0000000000      0.6508444444       3
     3124  3132  3130  3128    1  0.0000000000      0.6508444444       3
     6567  6569  6570  6571    1  0.0000000000      0.0000000000       1
     6567  6569  6570  6572    1  180.0000000000    1.0041600000       2
     6567  6569  6570  6580    1  180.0000000000    1.0041600000       2
     6585  6569  6570  6571    1  0.0000000000      0.0000000000       1
     6585  6569  6570  6572    1  180.0000000000    1.0041600000       2
     6585  6569  6570  6580    1  180.0000000000    1.0041600000       2
     6567  6569  6585  6572    1  180.0000000000    15.1670000000      2
     6567  6569  6585  6586    1  180.0000000000    15.1670000000      2
     6570  6569  6585  6572    1  180.0000000000    15.1670000000      2
     6570  6569  6585  6586    1  180.0000000000    15.1670000000      2
     3567  3572  3573  3574    1  180.0000000000    15.1670000000      2
     3567  3572  3573  6576    1  180.0000000000    15.1670000000      2
     3567  3572  6578  6576    1  180.0000000000    1.0041600000       2
     3573  3572  6578  6576    1  180.0000000000    1.0041600000       2
     3567  3572  6578  6579    1  0.0000000000      0.0000000000       1
     3573  3572  6578  6579    1  0.0000000000      0.0000000000       1
     3567  3572  6578  6580    1  180.0000000000    1.0041600000       2
     3573  3572  6578  6580    1  180.0000000000    1.0041600000       2
     3572  3567  3566  3579    1  180.0000000000    15.1670000000      2
     3566  3567  3568  3569    1  0.0000000000      0.0000000000       2
     3566  3567  3568  3570    1  0.0000000000      0.0000000000       2
     3566  3567  3568  3571    1  0.0000000000      0.0000000000       2
     3566  3567  3572  3573    1  180.0000000000    15.1670000000      2
     3568  3567  3572  3573    1  180.0000000000    15.1670000000      2
     3566  3567  3572  6578    1  180.0000000000    15.1670000000      2
     3568  3567  3572  6578    1  180.0000000000    15.1670000000      2
     6580  6578  6576  6577    1  0.0000000000      0.6508444444       3
     6580  6578  6576  3573    1  0.0000000000      0.6508444444       3
     3572  6578  6576  6577    1  0.0000000000      0.6508444444       3
     5176  5180  5181  5182    1  0.0000000000      0.5439200000       3
     5176  5180  5181  5183    1  0.0000000000      0.5439200000       3
     5176  5180  5181  5184    1  0.0000000000      0.5439200000       3
     5185  5180  5181  5182    1  0.0000000000      0.6508444444       3
     5185  5180  5181  5183    1  0.0000000000      0.6508444444       3
     5185  5180  5181  5184    1  0.0000000000      0.6508444444       3
     5209  5180  5181  5182    1  0.0000000000      0.6508444444       3
     5209  5180  5181  5183    1  0.0000000000      0.6508444444       3
     5209  5180  5181  5184    1  0.0000000000      0.6508444444       3
     5176  5180  5185  5186    1  0.0000000000      0.0000000000       2
     5176  5180  5185  5206    1  180.0000000000    1.0041600000       2
     5181  5180  5185  5186    1  0.0000000000      0.0000000000       2
     5181  5180  5185  5206    1  180.0000000000    1.0041600000       2
     5209  5180  5185  5186    1  0.0000000000      0.0000000000       2
     5209  5180  5185  5206    1  180.0000000000    0.0000000000       2
     5176  5180  5209  5208    1  0.0000000000      0.0000000000       2
     5176  5180  5209  5210    1  180.0000000000    1.0041600000       2
     5181  5180  5209  5208    1  0.0000000000      0.0000000000       2
     5181  5180  5209  5210    1  180.0000000000    1.0041600000       2
     5185  5180  5209  5208    1  0.0000000000      0.0000000000       2
     5185  5180  5209  5210    1  180.0000000000    0.0000000000       2
     6560  6565  6566  6567    1  180.0000000000    15.1670000000      2
     6560  6565  6566  6588    1  180.0000000000    15.1670000000      2
     6586  6565  6566  6567    1  180.0000000000    15.1670000000      2
     6586  6565  6566  6588    1  180.0000000000    15.1670000000      2
     6560  6565  6586  6585    1  180.0000000000    15.1670000000      2
     6560  6565  6586  6587    1  180.0000000000    15.1670000000      2
     6566  6565  6586  6585    1  180.0000000000    15.1670000000      2
     6566  6565  6586  6587    1  180.0000000000    15.1670000000      2
     1357  1358  1359  1360    1  180.0000000000    15.1670000000      2
     1357  1358  1359  1364    1  180.0000000000    15.1670000000      2
     1371  1358  1359  1360    1  180.0000000000    15.1670000000      2
     1357  1358  1371  1355    1  180.0000000000    1.0041600000       2
     1357  1358  1371  1372    1  0.0000000000      0.0000000000       1
     1357  1358  1371  1373    1  180.0000000000    1.0041600000       2
     1359  1358  1371  1355    1  180.0000000000    1.0041600000       2
     1359  1358  1371  1372    1  0.0000000000      0.0000000000       1
     1359  1358  1371  1373    1  180.0000000000    1.0041600000       2
     1367  1366  1365  1364    1  180.0000000000    15.1670000000      2
     1357  1366  1367  1368    1  0.0000000000      0.0000000000       2
     1357  1366  1367  1369    1  0.0000000000      0.0000000000       2
     1357  1366  1367  1370    1  0.0000000000      0.0000000000       2
     1365  1366  1357  1355    1  180.0000000000    15.1670000000      2
     1367  1366  1365  3128    1  180.0000000000    15.1670000000      2
     1357  1366  1365  3128    1  180.0000000000    15.1670000000      2
     5177  5176  5180  5181    1  0.0000000000      0.5439200000       3
     5177  5176  5180  5185    1  0.0000000000      0.6508444444       3
     5177  5176  5180  5209    1  0.0000000000      0.6508444444       3
     5178  5176  5180  5181    1  0.0000000000      0.5439200000       3
     5178  5176  5180  5185    1  0.0000000000      0.6508444444       3
     5178  5176  5180  5209    1  0.0000000000      0.6508444444       3
     5179  5176  5180  5181    1  0.0000000000      0.5439200000       3
     5179  5176  5180  5185    1  0.0000000000      0.6508444444       3
     5179  5176  5180  5209    1  0.0000000000      0.6508444444       3
     1886  1888  1878  1877    1  0.0000000000      0.6508444444       3
     1886  1888  1878  1879    1  0.0000000000      0.5439200000       3
     1886  1888  1878  1880    1  0.0000000000      2.1756800000       3
     1878  1888  1886  1884    1  0.0000000000      2.1756800000       3
     1889  1888  1886  1884    1  0.0000000000      0.5439200000       3
     1890  1888  1886  1884    1  0.0000000000      2.1756800000       3
     1878  1888  1886  1887    1  0.0000000000      0.5439200000       3
     1889  1888  1886  1887    1  0.0000000000      0.5020800000       3
     1890  1888  1886  1887    1  0.0000000000      0.5439200000       3
     1878  1888  1890  1882    1  0.0000000000      0.6508444444       3
     1878  1888  1890  1891    1  0.0000000000      0.6508444444       3
     1878  1888  1890  1892    1  0.0000000000      0.6508444444       3
     1886  1888  1890  1891    1  0.0000000000      0.6508444444       3
     1886  1888  1890  1892    1  0.0000000000      0.6508444444       3
     1889  1888  1890  1882    1  0.0000000000      0.5439200000       3
     1889  1888  1890  1891    1  0.0000000000      0.5020800000       3
     1889  1888  1890  1892    1  0.0000000000      0.5020800000       3
     1878  1888  1886  2538    1  0.0000000000      0.6508444444       3
     1889  1888  1886  2538    1  0.0000000000      0.6508444444       3
     1890  1888  1886  2538    1  0.0000000000      0.6508444444       3
     1355  1357  1358  1359    1  180.0000000000    15.1670000000      2
     1355  1357  1358  1371    1  180.0000000000    15.1670000000      2
     1366  1357  1358  1359    1  180.0000000000    15.1670000000      2
     1366  1357  1358  1371    1  180.0000000000    15.1670000000      2
     1355  1357  1366  1367    1  180.0000000000    15.1670000000      2
     1358  1357  1366  1365    1  180.0000000000    15.1670000000      2
     1358  1357  1366  1367    1  180.0000000000    15.1670000000      2
     3947  3948  3950  3951    1  0.0000000000      0.6508444444       3
     3947  3948  3950  3952    1  0.0000000000      0.6508444444       3
     3947  3948  3950  3963    1  0.0000000000      0.6508444444       3
     3949  3948  3950  3951    1  0.0000000000      0.6508444444       3
     3949  3948  3950  3952    1  0.0000000000      0.6508444444       3
     3949  3948  3950  3963    1  0.0000000000      0.6508444444       3
     3958  3948  3950  3951    1  0.0000000000      0.6508444444       3
     3958  3948  3950  3952    1  0.0000000000      0.6508444444       3
     3958  3948  3950  3963    1  0.0000000000      0.6508444444       3
     3947  3948  3958  3959    1  0.0000000000      0.6508444444       3
     3947  3948  3958  3960    1  0.0000000000      0.6508444444       3
     3949  3948  3958  3959    1  0.0000000000      0.5020800000       3
     3949  3948  3958  3960    1  0.0000000000      0.5439200000       3
     3950  3948  3958  3959    1  0.0000000000      0.5439200000       3
     3950  3948  3958  3960    1  0.0000000000      2.1756800000       3
     3945  3947  3948  3949    1  0.0000000000      0.0000000000       1
     3945  3947  3948  3950    1  180.0000000000    1.0041600000       2
     3945  3947  3948  3958    1  180.0000000000    1.0041600000       2
     3963  3947  3948  3949    1  0.0000000000      0.0000000000       1
     3963  3947  3948  3950    1  180.0000000000    1.0041600000       2
     3963  3947  3948  3958    1  180.0000000000    1.0041600000       2
     3945  3947  3963  3950    1  180.0000000000    15.1670000000      2
     3945  3947  3963  3964    1  180.0000000000    15.1670000000      2
     3948  3947  3963  3950    1  180.0000000000    15.1670000000      2
     3948  3947  3963  3964    1  180.0000000000    15.1670000000      2
     1640  1635  1634  1647    1  180.0000000000    15.1670000000      2
     1634  1635  1636  1637    1  0.0000000000      0.0000000000       2
     1634  1635  1636  1638    1  0.0000000000      0.0000000000       2
     1634  1635  1636  1639    1  0.0000000000      0.0000000000       2
     1634  1635  1640  1641    1  180.0000000000    15.1670000000      2
     1636  1635  1640  1641    1  180.0000000000    15.1670000000      2
     1634  1635  1640  4920    1  180.0000000000    15.1670000000      2
     1636  1635  1640  4920    1  180.0000000000    15.1670000000      2
     1592  1621  1622  1623    1  180.0000000000    15.1670000000      2
     1592  1621  1622  1624    1  180.0000000000    15.1670000000      2
     1620  1621  1622  1623    1  180.0000000000    15.1670000000      2
     1620  1621  1622  1624    1  180.0000000000    15.1670000000      2
     1633  1634  1635  1636    1  180.0000000000    15.1670000000      2
     1633  1634  1635  1640    1  180.0000000000    15.1670000000      2
     1647  1634  1635  1636    1  180.0000000000    15.1670000000      2
     1633  1634  1647  1631    1  180.0000000000    1.0041600000       2
     1633  1634  1647  1648    1  0.0000000000      0.0000000000       1
     1633  1634  1647  1649    1  180.0000000000    1.0041600000       2
     1635  1634  1647  1631    1  180.0000000000    1.0041600000       2
     1635  1634  1647  1648    1  0.0000000000      0.0000000000       1
     1635  1634  1647  1649    1  180.0000000000    1.0041600000       2
     1877  1878  1880  1881    1  0.0000000000      0.6508444444       3
     1877  1878  1880  1882    1  0.0000000000      0.6508444444       3
     1877  1878  1880  1893    1  0.0000000000      0.6508444444       3
     1879  1878  1880  1881    1  0.0000000000      0.6508444444       3
     1879  1878  1880  1882    1  0.0000000000      0.6508444444       3
     1879  1878  1880  1893    1  0.0000000000      0.6508444444       3
     1888  1878  1880  1881    1  0.0000000000      0.6508444444       3
     1888  1878  1880  1882    1  0.0000000000      0.6508444444       3
     1888  1878  1880  1893    1  0.0000000000      0.6508444444       3
     1877  1878  1888  1889    1  0.0000000000      0.6508444444       3
     1877  1878  1888  1890    1  0.0000000000      0.6508444444       3
     1879  1878  1888  1889    1  0.0000000000      0.5020800000       3
     1879  1878  1888  1890    1  0.0000000000      0.5439200000       3
     1880  1878  1888  1889    1  0.0000000000      0.5439200000       3
     1880  1878  1888  1890    1  0.0000000000      2.1756800000       3
     1622  1624  1625  1626    1  0.0000000000      0.0000000000       1
     1622  1624  1625  1627    1  180.0000000000    1.0041600000       2
     1622  1624  1625  1649    1  180.0000000000    1.0041600000       2
     1654  1624  1625  1626    1  0.0000000000      0.0000000000       1
     1654  1624  1625  1627    1  180.0000000000    1.0041600000       2
     1654  1624  1625  1649    1  180.0000000000    1.0041600000       2
     1622  1624  1654  1627    1  180.0000000000    15.1670000000      2
     1622  1624  1654  1655    1  180.0000000000    15.1670000000      2
     1625  1624  1654  1627    1  180.0000000000    15.1670000000      2
     1625  1624  1654  1655    1  180.0000000000    15.1670000000      2
     1631  1633  1634  1635    1  180.0000000000    15.1670000000      2
     1631  1633  1634  1647    1  180.0000000000    15.1670000000      2
     1642  1633  1634  1635    1  180.0000000000    15.1670000000      2
     1642  1633  1634  1647    1  180.0000000000    15.1670000000      2
     1631  1633  1642  1643    1  180.0000000000    15.1670000000      2
     1634  1633  1642  1641    1  180.0000000000    15.1670000000      2
     1634  1633  1642  1643    1  180.0000000000    15.1670000000      2
     2496  2498  2499  2500    1  0.0000000000      0.0000000000       1
     2496  2498  2499  2501    1  180.0000000000    1.0041600000       2
     2496  2498  2499  2509    1  180.0000000000    1.0041600000       2
     2514  2498  2499  2500    1  0.0000000000      0.0000000000       1
     2514  2498  2499  2501    1  180.0000000000    1.0041600000       2
     2514  2498  2499  2509    1  180.0000000000    1.0041600000       2
     2496  2498  2514  2501    1  180.0000000000    15.1670000000      2
     2496  2498  2514  2515    1  180.0000000000    15.1670000000      2
     2499  2498  2514  2501    1  180.0000000000    15.1670000000      2
     2499  2498  2514  2515    1  180.0000000000    15.1670000000      2
     2501  2503  2505  2506    1  0.0000000000      0.6508444444       3
     2501  2503  2505  2507    1  0.0000000000      0.6508444444       3
     2504  2503  2505  2506    1  0.0000000000      0.5020800000       3
     2504  2503  2505  2507    1  0.0000000000      0.5439200000       3
     2511  2503  2505  2506    1  0.0000000000      0.5439200000       3
     2511  2503  2505  2507    1  0.0000000000      2.1756800000       3
     2501  2503  2511  2509    1  0.0000000000      0.6508444444       3
     2501  2503  2511  2512    1  0.0000000000      0.6508444444       3
     2501  2503  2511  2513    1  0.0000000000      0.6508444444       3
     2504  2503  2511  2509    1  0.0000000000      0.5439200000       3
     2504  2503  2511  2512    1  0.0000000000      0.5020800000       3
     2504  2503  2511  2513    1  0.0000000000      0.5020800000       3
     2505  2503  2511  2509    1  0.0000000000      2.1756800000       3
     2505  2503  2511  2512    1  0.0000000000      0.5439200000       3
     2505  2503  2511  2513    1  0.0000000000      0.5439200000       3
     1621  1622  1624  1625    1  180.0000000000    15.1670000000      2
     1621  1622  1624  1654    1  180.0000000000    15.1670000000      2
     1623  1622  1624  1625    1  180.0000000000    15.1670000000      2
     1623  1622  1624  1654    1  180.0000000000    15.1670000000      2
     5672  5673  5675  5676    1  0.0000000000      0.6508444444       3
     5672  5673  5675  5677    1  0.0000000000      0.6508444444       3
     5672  5673  5675  5688    1  0.0000000000      0.6508444444       3
     5674  5673  5675  5676    1  0.0000000000      0.6508444444       3
     5674  5673  5675  5677    1  0.0000000000      0.6508444444       3
     5674  5673  5675  5688    1  0.0000000000      0.6508444444       3
     5683  5673  5675  5676    1  0.0000000000      0.6508444444       3
     5683  5673  5675  5677    1  0.0000000000      0.6508444444       3
     5683  5673  5675  5688    1  0.0000000000      0.6508444444       3
     5672  5673  5683  5684    1  0.0000000000      0.6508444444       3
     5672  5673  5683  5685    1  0.0000000000      0.6508444444       3
     5674  5673  5683  5684    1  0.0000000000      0.5020800000       3
     5674  5673  5683  5685    1  0.0000000000      0.5439200000       3
     5675  5673  5683  5684    1  0.0000000000      0.5439200000       3
     5675  5673  5683  5685    1  0.0000000000      2.1756800000       3
     2498  2514  2515  2494    1  180.0000000000    15.1670000000      2
     2498  2514  2515  2516    1  180.0000000000    15.1670000000      2
     2501  2514  2515  2494    1  180.0000000000    15.1670000000      2
     2501  2514  2515  2516    1  180.0000000000    15.1670000000      2
     1625  1627  1629  1630    1  0.0000000000      0.5439200000       3
     1625  1627  1629  1631    1  0.0000000000      2.1756800000       3
     1625  1627  1629  1651    1  0.0000000000      2.1756800000       3
     1628  1627  1629  1630    1  0.0000000000      0.5020800000       3
     1628  1627  1629  1631    1  0.0000000000      0.5439200000       3
     1628  1627  1629  1651    1  0.0000000000      0.5439200000       3
     1654  1627  1629  1630    1  0.0000000000      0.6508444444       3
     1654  1627  1629  1631    1  0.0000000000      0.6508444444       3
     1654  1627  1629  1651    1  0.0000000000      0.6508444444       3
     1625  1627  1654  1624    1  180.0000000000    1.0041600000       2
     1625  1627  1654  1655    1  180.0000000000    1.0041600000       2
     1628  1627  1654  1624    1  0.0000000000      0.0000000000       1
     1628  1627  1654  1655    1  0.0000000000      0.0000000000       1
     1629  1627  1654  1624    1  180.0000000000    1.0041600000       2
     1629  1627  1654  1655    1  180.0000000000    1.0041600000       2
     5669  5670  5672  5673    1  180.0000000000    15.1670000000      2
     5669  5670  5672  5688    1  180.0000000000    15.1670000000      2
     5671  5670  5672  5673    1  180.0000000000    15.1670000000      2
     5671  5670  5672  5688    1  180.0000000000    15.1670000000      2
     5670  5672  5673  5674    1  0.0000000000      0.0000000000       1
     5670  5672  5673  5675    1  180.0000000000    1.0041600000       2
     5670  5672  5673  5683    1  180.0000000000    1.0041600000       2
     5688  5672  5673  5674    1  0.0000000000      0.0000000000       1
     5688  5672  5673  5675    1  180.0000000000    1.0041600000       2
     5688  5672  5673  5683    1  180.0000000000    1.0041600000       2
     5670  5672  5688  5675    1  180.0000000000    15.1670000000      2
     5670  5672  5688  5689    1  180.0000000000    15.1670000000      2
     5673  5672  5688  5675    1  180.0000000000    15.1670000000      2
     5673  5672  5688  5689    1  180.0000000000    15.1670000000      2
     1629  1631  1633  1634    1  180.0000000000    1.0041600000       2
     1629  1631  1633  1642    1  180.0000000000    1.0041600000       2
     1632  1631  1633  1634    1  0.0000000000      0.0000000000       1
     1632  1631  1633  1642    1  0.0000000000      0.0000000000       1
     1647  1631  1633  1634    1  180.0000000000    1.0041600000       2
     1647  1631  1633  1642    1  180.0000000000    1.0041600000       2
     1629  1631  1647  1634    1  0.0000000000      0.6508444444       3
     1629  1631  1647  1648    1  0.0000000000      0.6508444444       3
     1629  1631  1647  1649    1  0.0000000000      0.6508444444       3
     1632  1631  1647  1634    1  0.0000000000      0.6508444444       3
     1632  1631  1647  1648    1  0.0000000000      0.6508444444       3
     1632  1631  1647  1649    1  0.0000000000      0.6508444444       3
     1633  1631  1647  1634    1  0.0000000000      0.6508444444       3
     1633  1631  1647  1648    1  0.0000000000      0.6508444444       3
     1633  1631  1647  1649    1  0.0000000000      0.6508444444       3
     2495  2496  2498  2499    1  180.0000000000    15.1670000000      2
     2495  2496  2498  2514    1  180.0000000000    15.1670000000      2
     2497  2496  2498  2499    1  180.0000000000    15.1670000000      2
     2497  2496  2498  2514    1  180.0000000000    15.1670000000      2
     1624  1625  1627  1628    1  0.0000000000      0.6508444444       3
     1624  1625  1627  1629    1  0.0000000000      0.6508444444       3
     1624  1625  1627  1654    1  0.0000000000      0.6508444444       3
     1626  1625  1627  1628    1  0.0000000000      0.6508444444       3
     1626  1625  1627  1629    1  0.0000000000      0.6508444444       3
     1626  1625  1627  1654    1  0.0000000000      0.6508444444       3
     1649  1625  1627  1628    1  0.0000000000      0.6508444444       3
     1649  1625  1627  1629    1  0.0000000000      0.6508444444       3
     1649  1625  1627  1654    1  0.0000000000      0.6508444444       3
     1624  1625  1649  1647    1  0.0000000000      0.6508444444       3
     1624  1625  1649  1650    1  0.0000000000      0.6508444444       3
     1624  1625  1649  1651    1  0.0000000000      0.6508444444       3
     1626  1625  1649  1647    1  0.0000000000      0.5439200000       3
     1626  1625  1649  1650    1  0.0000000000      0.5020800000       3
     1626  1625  1649  1651    1  0.0000000000      0.5439200000       3
     1627  1625  1649  1647    1  0.0000000000      2.1756800000       3
     1627  1625  1649  1650    1  0.0000000000      0.5439200000       3
     1627  1625  1649  1651    1  0.0000000000      2.1756800000       3
     1631  1647  1649  1625    1  0.0000000000      2.1756800000       3
     1631  1647  1649  1650    1  0.0000000000      0.5439200000       3
     1631  1647  1649  1651    1  0.0000000000      2.1756800000       3
     1634  1647  1649  1625    1  0.0000000000      0.6508444444       3
     1634  1647  1649  1650    1  0.0000000000      0.6508444444       3
     1634  1647  1649  1651    1  0.0000000000      0.6508444444       3
     1648  1647  1649  1625    1  0.0000000000      0.5439200000       3
     1648  1647  1649  1650    1  0.0000000000      0.5020800000       3
     1648  1647  1649  1651    1  0.0000000000      0.5439200000       3
     2503  2505  2507  2508    1  0.0000000000      0.5439200000       3
     2503  2505  2507  2509    1  0.0000000000      2.1756800000       3
     2506  2505  2507  2508    1  0.0000000000      0.5020800000       3
     2506  2505  2507  2509    1  0.0000000000      0.5439200000       3
     5673  5683  5681  5679    1  0.0000000000      2.1756800000       3
     5684  5683  5681  5679    1  0.0000000000      0.5439200000       3
     5685  5683  5681  5679    1  0.0000000000      2.1756800000       3
     5673  5683  5681  5682    1  0.0000000000      0.5439200000       3
     5684  5683  5681  5682    1  0.0000000000      0.5020800000       3
     5685  5683  5681  5682    1  0.0000000000      0.5439200000       3
     5681  5683  5673  5672    1  0.0000000000      0.6508444444       3
     5681  5683  5673  5674    1  0.0000000000      0.5439200000       3
     5681  5683  5673  5675    1  0.0000000000      2.1756800000       3
     5673  5683  5685  5677    1  0.0000000000      0.6508444444       3
     5673  5683  5685  5686    1  0.0000000000      0.6508444444       3
     5673  5683  5685  5687    1  0.0000000000      0.6508444444       3
     5681  5683  5685  5686    1  0.0000000000      0.6508444444       3
     5681  5683  5685  5687    1  0.0000000000      0.6508444444       3
     5684  5683  5685  5677    1  0.0000000000      0.5439200000       3
     5684  5683  5685  5686    1  0.0000000000      0.5020800000       3
     5684  5683  5685  5687    1  0.0000000000      0.5020800000       3
     5673  5683  5681  1917    1  0.0000000000      0.6508444444       3
     5684  5683  5681  1917    1  0.0000000000      0.6508444444       3
     5685  5683  5681  1917    1  0.0000000000      0.6508444444       3
     1627  1629  1631  1632    1  0.0000000000      0.5439200000       3
     1627  1629  1631  1633    1  0.0000000000      0.6508444444       3
     1627  1629  1631  1647    1  0.0000000000      2.1756800000       3
     1630  1629  1631  1632    1  0.0000000000      0.5020800000       3
     1630  1629  1631  1633    1  0.0000000000      0.6508444444       3
     1630  1629  1631  1647    1  0.0000000000      0.5439200000       3
     1651  1629  1631  1632    1  0.0000000000      0.5439200000       3
     1651  1629  1631  1633    1  0.0000000000      0.6508444444       3
     1651  1629  1631  1647    1  0.0000000000      2.1756800000       3
     1627  1629  1651  1649    1  0.0000000000      0.6508444444       3
     1627  1629  1651  1652    1  0.0000000000      0.6508444444       3
     1627  1629  1651  1653    1  0.0000000000      0.6508444444       3
     1630  1629  1651  1649    1  0.0000000000      0.5439200000       3
     1630  1629  1651  1652    1  0.0000000000      0.5020800000       3
     1630  1629  1651  1653    1  0.0000000000      0.5020800000       3
     1631  1629  1651  1649    1  0.0000000000      0.6508444444       3
     1631  1629  1651  1652    1  0.0000000000      0.6508444444       3
     1631  1629  1651  1653    1  0.0000000000      0.6508444444       3
     2499  2501  2503  2504    1  0.0000000000      0.5439200000       3
     2499  2501  2503  2505    1  0.0000000000      2.1756800000       3
     2499  2501  2503  2511    1  0.0000000000      2.1756800000       3
     2502  2501  2503  2504    1  0.0000000000      0.5020800000       3
     2502  2501  2503  2505    1  0.0000000000      0.5439200000       3
     2502  2501  2503  2511    1  0.0000000000      0.5439200000       3
     2514  2501  2503  2504    1  0.0000000000      0.6508444444       3
     2514  2501  2503  2505    1  0.0000000000      0.6508444444       3
     2514  2501  2503  2511    1  0.0000000000      0.6508444444       3
     2499  2501  2514  2498    1  180.0000000000    1.0041600000       2
     2499  2501  2514  2515    1  180.0000000000    1.0041600000       2
     2502  2501  2514  2498    1  0.0000000000      0.0000000000       1
     2502  2501  2514  2515    1  0.0000000000      0.0000000000       1
     2503  2501  2514  2498    1  180.0000000000    1.0041600000       2
     2503  2501  2514  2515    1  180.0000000000    1.0041600000       2
     1625  1649  1651  1629    1  0.0000000000      0.6508444444       3
     1625  1649  1651  1652    1  0.0000000000      0.6508444444       3
     1625  1649  1651  1653    1  0.0000000000      0.6508444444       3
     1647  1649  1651  1629    1  0.0000000000      0.6508444444       3
     1647  1649  1651  1652    1  0.0000000000      0.6508444444       3
     1647  1649  1651  1653    1  0.0000000000      0.6508444444       3
     1650  1649  1651  1629    1  0.0000000000      0.5439200000       3
     1650  1649  1651  1652    1  0.0000000000      0.5020800000       3
     1650  1649  1651  1653    1  0.0000000000      0.5020800000       3
     2499  2509  2511  2503    1  0.0000000000      0.6508444444       3
     2499  2509  2511  2512    1  0.0000000000      0.6508444444       3
     2499  2509  2511  2513    1  0.0000000000      0.6508444444       3
     2507  2509  2511  2503    1  0.0000000000      2.1756800000       3
     2507  2509  2511  2512    1  0.0000000000      0.5439200000       3
     2507  2509  2511  2513    1  0.0000000000      0.5439200000       3
     2510  2509  2511  2503    1  0.0000000000      0.5439200000       3
     2510  2509  2511  2512    1  0.0000000000      0.5020800000       3
     2510  2509  2511  2513    1  0.0000000000      0.5020800000       3
     3553  3554  3556  3557    1  180.0000000000    15.1670000000      2
     3553  3554  3556  3586    1  180.0000000000    15.1670000000      2
     3555  3554  3556  3557    1  180.0000000000    15.1670000000      2
     3555  3554  3556  3586    1  180.0000000000    15.1670000000      2
     3569  3568  3567  3572    1  0.0000000000      0.0000000000       2
     3570  3568  3567  3572    1  0.0000000000      0.0000000000       2
     3571  3568  3567  3572    1  0.0000000000      0.0000000000       2
     3524  3553  3554  3555    1  180.0000000000    15.1670000000      2
     3524  3553  3554  3556    1  180.0000000000    15.1670000000      2
     3552  3553  3554  3555    1  180.0000000000    15.1670000000      2
     3552  3553  3554  3556    1  180.0000000000    15.1670000000      2
     2505  2507  2509  2499    1  0.0000000000      0.6508444444       3
     2505  2507  2509  2510    1  0.0000000000      0.5439200000       3
     2505  2507  2509  2511    1  0.0000000000      2.1756800000       3
     2508  2507  2509  2499    1  0.0000000000      0.6508444444       3
     2508  2507  2509  2510    1  0.0000000000      0.5020800000       3
     2508  2507  2509  2511    1  0.0000000000      0.5439200000       3
     3521  3520  3524  3525    1  0.0000000000      0.5439200000       3
     3521  3520  3524  3529    1  0.0000000000      0.6508444444       3
     3521  3520  3524  3553    1  0.0000000000      0.6508444444       3
     3522  3520  3524  3525    1  0.0000000000      0.5439200000       3
     3522  3520  3524  3529    1  0.0000000000      0.6508444444       3
     3522  3520  3524  3553    1  0.0000000000      0.6508444444       3
     3523  3520  3524  3525    1  0.0000000000      0.5439200000       3
     3523  3520  3524  3529    1  0.0000000000      0.6508444444       3
     3523  3520  3524  3553    1  0.0000000000      0.6508444444       3
     2498  2499  2501  2502    1  0.0000000000      0.6508444444       3
     2498  2499  2501  2503    1  0.0000000000      0.6508444444       3
     2498  2499  2501  2514    1  0.0000000000      0.6508444444       3
     2500  2499  2501  2502    1  0.0000000000      0.6508444444       3
     2500  2499  2501  2503    1  0.0000000000      0.6508444444       3
     2500  2499  2501  2514    1  0.0000000000      0.6508444444       3
     2509  2499  2501  2502    1  0.0000000000      0.6508444444       3
     2509  2499  2501  2503    1  0.0000000000      0.6508444444       3
     2509  2499  2501  2514    1  0.0000000000      0.6508444444       3
     2498  2499  2509  2507    1  0.0000000000      0.6508444444       3
     2498  2499  2509  2510    1  0.0000000000      0.6508444444       3
     2498  2499  2509  2511    1  0.0000000000      0.6508444444       3
     2500  2499  2509  2507    1  0.0000000000      0.5439200000       3
     2500  2499  2509  2510    1  0.0000000000      0.5020800000       3
     2500  2499  2509  2511    1  0.0000000000      0.5439200000       3
     2501  2499  2509  2507    1  0.0000000000      2.1756800000       3
     2501  2499  2509  2510    1  0.0000000000      0.5439200000       3
     2501  2499  2509  2511    1  0.0000000000      2.1756800000       3
     1624  1654  1655  1620    1  180.0000000000    15.1670000000      2
     1624  1654  1655  1656    1  180.0000000000    15.1670000000      2
     1627  1654  1655  1620    1  180.0000000000    15.1670000000      2
     1627  1654  1655  1656    1  180.0000000000    15.1670000000      2
     3948  3950  3952  3953    1  0.0000000000      0.5439200000       3
     3948  3950  3952  3960    1  0.0000000000      2.1756800000       3
     3951  3950  3952  3953    1  0.0000000000      0.5020800000       3
     3951  3950  3952  3960    1  0.0000000000      0.5439200000       3
     3963  3950  3952  3953    1  0.0000000000      0.6508444444       3
     3963  3950  3952  3960    1  0.0000000000      0.6508444444       3
     3948  3950  3963  3947    1  180.0000000000    1.0041600000       2
     3948  3950  3963  3964    1  180.0000000000    1.0041600000       2
     3951  3950  3963  3947    1  0.0000000000      0.0000000000       1
     3951  3950  3963  3964    1  0.0000000000      0.0000000000       1
     3952  3950  3963  3947    1  180.0000000000    1.0041600000       2
     3952  3950  3963  3964    1  180.0000000000    1.0041600000       2
     2526  2528  2530  2531    1  180.0000000000    1.0041600000       2
     2526  2528  2530  2539    1  180.0000000000    1.0041600000       2
     2529  2528  2530  2531    1  0.0000000000      0.0000000000       1
     2529  2528  2530  2539    1  0.0000000000      0.0000000000       1
     2544  2528  2530  2531    1  180.0000000000    1.0041600000       2
     2544  2528  2530  2539    1  180.0000000000    1.0041600000       2
     2526  2528  2544  2531    1  0.0000000000      0.6508444444       3
     2526  2528  2544  2545    1  0.0000000000      0.6508444444       3
     2526  2528  2544  2546    1  0.0000000000      0.6508444444       3
     2529  2528  2544  2531    1  0.0000000000      0.6508444444       3
     2529  2528  2544  2545    1  0.0000000000      0.6508444444       3
     2529  2528  2544  2546    1  0.0000000000      0.6508444444       3
     2530  2528  2544  2531    1  0.0000000000      0.6508444444       3
     2530  2528  2544  2545    1  0.0000000000      0.6508444444       3
     2530  2528  2544  2546    1  0.0000000000      0.6508444444       3
     1355  1371  1373  1349    1  0.0000000000      2.1756800000       3
     1355  1371  1373  1374    1  0.0000000000      0.5439200000       3
     1355  1371  1373  1375    1  0.0000000000      2.1756800000       3
     1358  1371  1373  1349    1  0.0000000000      0.6508444444       3
     1358  1371  1373  1374    1  0.0000000000      0.6508444444       3
     1358  1371  1373  1375    1  0.0000000000      0.6508444444       3
     1372  1371  1373  1349    1  0.0000000000      0.5439200000       3
     1372  1371  1373  1374    1  0.0000000000      0.5020800000       3
     1372  1371  1373  1375    1  0.0000000000      0.5439200000       3
     1353  1355  1357  1358    1  180.0000000000    1.0041600000       2
     1353  1355  1357  1366    1  180.0000000000    1.0041600000       2
     1356  1355  1357  1358    1  0.0000000000      0.0000000000       1
     1356  1355  1357  1366    1  0.0000000000      0.0000000000       1
     1371  1355  1357  1358    1  180.0000000000    1.0041600000       2
     1371  1355  1357  1366    1  180.0000000000    1.0041600000       2
     1353  1355  1371  1358    1  0.0000000000      0.6508444444       3
     1353  1355  1371  1372    1  0.0000000000      0.6508444444       3
     1353  1355  1371  1373    1  0.0000000000      0.6508444444       3
     1356  1355  1371  1358    1  0.0000000000      0.6508444444       3
     1356  1355  1371  1372    1  0.0000000000      0.6508444444       3
     1356  1355  1371  1373    1  0.0000000000      0.6508444444       3
     1357  1355  1371  1358    1  0.0000000000      0.6508444444       3
     1357  1355  1371  1372    1  0.0000000000      0.6508444444       3
     1357  1355  1371  1373    1  0.0000000000      0.6508444444       3
     2541  2540  2539  2538    1  0.0000000000      0.0000000000       2
     2542  2540  2539  2538    1  0.0000000000      0.0000000000       2
     2543  2540  2539  2538    1  0.0000000000      0.0000000000       2
     6812  6811  6810  6815    1  0.0000000000      0.0000000000       2
     6813  6811  6810  6815    1  0.0000000000      0.0000000000       2
     6814  6811  6810  6815    1  0.0000000000      0.0000000000       2
     1349  1373  1375  1353    1  0.0000000000      0.6508444444       3
     1349  1373  1375  1376    1  0.0000000000      0.6508444444       3
     1349  1373  1375  1377    1  0.0000000000      0.6508444444       3
     1371  1373  1375  1353    1  0.0000000000      0.6508444444       3
     1371  1373  1375  1376    1  0.0000000000      0.6508444444       3
     1371  1373  1375  1377    1  0.0000000000      0.6508444444       3
     1374  1373  1375  1353    1  0.0000000000      0.5439200000       3
     1374  1373  1375  1376    1  0.0000000000      0.5020800000       3
     1374  1373  1375  1377    1  0.0000000000      0.5020800000       3
     6815  6810  6809  6822    1  180.0000000000    15.1670000000      2
     6809  6810  6811  6812    1  0.0000000000      0.0000000000       2
     6809  6810  6811  6813    1  0.0000000000      0.0000000000       2
     6809  6810  6811  6814    1  0.0000000000      0.0000000000       2
     6809  6810  6815  6816    1  180.0000000000    15.1670000000      2
     6811  6810  6815  6816    1  180.0000000000    15.1670000000      2
     6809  6810  6815  23      1  180.0000000000    15.1670000000      2
     6811  6810  6815  23      1  180.0000000000    15.1670000000      2
     3212  3236  3238  3216    1  0.0000000000      0.6508444444       3
     3212  3236  3238  3239    1  0.0000000000      0.6508444444       3
     3212  3236  3238  3240    1  0.0000000000      0.6508444444       3
     3234  3236  3238  3216    1  0.0000000000      0.6508444444       3
     3234  3236  3238  3239    1  0.0000000000      0.6508444444       3
     3234  3236  3238  3240    1  0.0000000000      0.6508444444       3
     3237  3236  3238  3216    1  0.0000000000      0.5439200000       3
     3237  3236  3238  3239    1  0.0000000000      0.5020800000       3
     3237  3236  3238  3240    1  0.0000000000      0.5020800000       3
     3218  3234  3236  3212    1  0.0000000000      2.1756800000       3
     3218  3234  3236  3237    1  0.0000000000      0.5439200000       3
     3218  3234  3236  3238    1  0.0000000000      2.1756800000       3
     3221  3234  3236  3212    1  0.0000000000      0.6508444444       3
     3221  3234  3236  3237    1  0.0000000000      0.6508444444       3
     3221  3234  3236  3238    1  0.0000000000      0.6508444444       3
     3235  3234  3236  3212    1  0.0000000000      0.5439200000       3
     3235  3234  3236  3237    1  0.0000000000      0.5020800000       3
     3235  3234  3236  3238    1  0.0000000000      0.5439200000       3
     3224  3223  3222  3227    1  0.0000000000      0.0000000000       2
     3225  3223  3222  3227    1  0.0000000000      0.0000000000       2
     3226  3223  3222  3227    1  0.0000000000      0.0000000000       2
     3227  3222  3221  3234    1  180.0000000000    15.1670000000      2
     3221  3222  3223  3224    1  0.0000000000      0.0000000000       2
     3221  3222  3223  3225    1  0.0000000000      0.0000000000       2
     3221  3222  3223  3226    1  0.0000000000      0.0000000000       2
     3221  3222  3227  3228    1  180.0000000000    15.1670000000      2
     3223  3222  3227  3228    1  180.0000000000    15.1670000000      2
     3221  3222  3227  2921    1  180.0000000000    15.1670000000      2
     3223  3222  3227  2921    1  180.0000000000    15.1670000000      2
     3220  3221  3222  3223    1  180.0000000000    15.1670000000      2
     3220  3221  3222  3227    1  180.0000000000    15.1670000000      2
     3234  3221  3222  3223    1  180.0000000000    15.1670000000      2
     3220  3221  3234  3218    1  180.0000000000    1.0041600000       2
     3220  3221  3234  3235    1  0.0000000000      0.0000000000       1
     3220  3221  3234  3236    1  180.0000000000    1.0041600000       2
     3222  3221  3234  3218    1  180.0000000000    1.0041600000       2
     3222  3221  3234  3235    1  0.0000000000      0.0000000000       1
     3222  3221  3234  3236    1  180.0000000000    1.0041600000       2
     2538  2539  2530  2528    1  180.0000000000    15.1670000000      2
     2540  2539  2538  2537    1  180.0000000000    15.1670000000      2
     2530  2539  2540  2541    1  0.0000000000      0.0000000000       2
     2530  2539  2540  2542    1  0.0000000000      0.0000000000       2
     2530  2539  2540  2543    1  0.0000000000      0.0000000000       2
     2530  2539  2538  1886    1  180.0000000000    15.1670000000      2
     2540  2539  2538  1886    1  180.0000000000    15.1670000000      2
     6810  6815  6816  6817    1  180.0000000000    15.1670000000      2
     6810  6815  6816  21      1  180.0000000000    15.1670000000      2
     6816  6815  23    21      1  180.0000000000    1.0041600000       2
     6810  6815  23    21      1  180.0000000000    1.0041600000       2
     6816  6815  23    24      1  0.0000000000      0.0000000000       1
     6810  6815  23    24      1  0.0000000000      0.0000000000       1
     6816  6815  23    25      1  180.0000000000    1.0041600000       2
     6810  6815  23    25      1  180.0000000000    1.0041600000       2
     1348  1349  1351  1352    1  0.0000000000      0.6508444444       3
     1348  1349  1351  1353    1  0.0000000000      0.6508444444       3
     1348  1349  1351  1378    1  0.0000000000      0.6508444444       3
     1350  1349  1351  1352    1  0.0000000000      0.6508444444       3
     1350  1349  1351  1353    1  0.0000000000      0.6508444444       3
     1350  1349  1351  1378    1  0.0000000000      0.6508444444       3
     1373  1349  1351  1352    1  0.0000000000      0.6508444444       3
     1373  1349  1351  1353    1  0.0000000000      0.6508444444       3
     1373  1349  1351  1378    1  0.0000000000      0.6508444444       3
     1348  1349  1373  1371    1  0.0000000000      0.6508444444       3
     1348  1349  1373  1374    1  0.0000000000      0.6508444444       3
     1348  1349  1373  1375    1  0.0000000000      0.6508444444       3
     1350  1349  1373  1371    1  0.0000000000      0.5439200000       3
     1350  1349  1373  1374    1  0.0000000000      0.5020800000       3
     1350  1349  1373  1375    1  0.0000000000      0.5439200000       3
     1351  1349  1373  1371    1  0.0000000000      2.1756800000       3
     1351  1349  1373  1374    1  0.0000000000      0.5439200000       3
     1351  1349  1373  1375    1  0.0000000000      2.1756800000       3
     2524  2526  2528  2529    1  0.0000000000      0.5439200000       3
     2524  2526  2528  2530    1  0.0000000000      0.6508444444       3
     2524  2526  2528  2544    1  0.0000000000      2.1756800000       3
     2527  2526  2528  2529    1  0.0000000000      0.5020800000       3
     2527  2526  2528  2530    1  0.0000000000      0.6508444444       3
     2527  2526  2528  2544    1  0.0000000000      0.5439200000       3
     2548  2526  2528  2529    1  0.0000000000      0.5439200000       3
     2548  2526  2528  2530    1  0.0000000000      0.6508444444       3
     2548  2526  2528  2544    1  0.0000000000      2.1756800000       3
     2524  2526  2548  2546    1  0.0000000000      0.6508444444       3
     2524  2526  2548  2549    1  0.0000000000      0.6508444444       3
     2524  2526  2548  2550    1  0.0000000000      0.6508444444       3
     2527  2526  2548  2546    1  0.0000000000      0.5439200000       3
     2527  2526  2548  2549    1  0.0000000000      0.5020800000       3
     2527  2526  2548  2550    1  0.0000000000      0.5020800000       3
     2528  2526  2548  2546    1  0.0000000000      0.6508444444       3
     2528  2526  2548  2549    1  0.0000000000      0.6508444444       3
     2528  2526  2548  2550    1  0.0000000000      0.6508444444       3
     2528  2530  2531  2532    1  180.0000000000    15.1670000000      2
     2528  2530  2531  2544    1  180.0000000000    15.1670000000      2
     2539  2530  2531  2532    1  180.0000000000    15.1670000000      2
     2539  2530  2531  2544    1  180.0000000000    15.1670000000      2
     2528  2530  2539  2540    1  180.0000000000    15.1670000000      2
     2531  2530  2539  2538    1  180.0000000000    15.1670000000      2
     2531  2530  2539  2540    1  180.0000000000    15.1670000000      2
     1351  1353  1355  1356    1  0.0000000000      0.5439200000       3
     1351  1353  1355  1357    1  0.0000000000      0.6508444444       3
     1351  1353  1355  1371    1  0.0000000000      2.1756800000       3
     1354  1353  1355  1356    1  0.0000000000      0.5020800000       3
     1354  1353  1355  1357    1  0.0000000000      0.6508444444       3
     1354  1353  1355  1371    1  0.0000000000      0.5439200000       3
     1375  1353  1355  1356    1  0.0000000000      0.5439200000       3
     1375  1353  1355  1357    1  0.0000000000      0.6508444444       3
     1375  1353  1355  1371    1  0.0000000000      2.1756800000       3
     1351  1353  1375  1373    1  0.0000000000      0.6508444444       3
     1351  1353  1375  1376    1  0.0000000000      0.6508444444       3
     1351  1353  1375  1377    1  0.0000000000      0.6508444444       3
     1354  1353  1375  1373    1  0.0000000000      0.5439200000       3
     1354  1353  1375  1376    1  0.0000000000      0.5020800000       3
     1354  1353  1375  1377    1  0.0000000000      0.5020800000       3
     1355  1353  1375  1373    1  0.0000000000      0.6508444444       3
     1355  1353  1375  1376    1  0.0000000000      0.6508444444       3
     1355  1353  1375  1377    1  0.0000000000      0.6508444444       3
     6808  6809  6810  6811    1  180.0000000000    15.1670000000      2
     6808  6809  6810  6815    1  180.0000000000    15.1670000000      2
     6822  6809  6810  6811    1  180.0000000000    15.1670000000      2
     6808  6809  6822  6806    1  180.0000000000    1.0041600000       2
     6808  6809  6822  6823    1  0.0000000000      0.0000000000       1
     6808  6809  6822  6824    1  180.0000000000    1.0041600000       2
     6810  6809  6822  6806    1  180.0000000000    1.0041600000       2
     6810  6809  6822  6823    1  0.0000000000      0.0000000000       1
     6810  6809  6822  6824    1  180.0000000000    1.0041600000       2
     4466  4465  4464  4469    1  0.0000000000      0.0000000000       2
     4467  4465  4464  4469    1  0.0000000000      0.0000000000       2
     4468  4465  4464  4469    1  0.0000000000      0.0000000000       2
     2528  2544  2546  2522    1  0.0000000000      2.1756800000       3
     2528  2544  2546  2547    1  0.0000000000      0.5439200000       3
     2528  2544  2546  2548    1  0.0000000000      2.1756800000       3
     2531  2544  2546  2522    1  0.0000000000      0.6508444444       3
     2531  2544  2546  2547    1  0.0000000000      0.6508444444       3
     2531  2544  2546  2548    1  0.0000000000      0.6508444444       3
     2545  2544  2546  2522    1  0.0000000000      0.5439200000       3
     2545  2544  2546  2547    1  0.0000000000      0.5020800000       3
     2545  2544  2546  2548    1  0.0000000000      0.5439200000       3
     3216  3218  3220  3221    1  180.0000000000    1.0041600000       2
     3216  3218  3220  3229    1  180.0000000000    1.0041600000       2
     3219  3218  3220  3221    1  0.0000000000      0.0000000000       1
     3219  3218  3220  3229    1  0.0000000000      0.0000000000       1
     3234  3218  3220  3221    1  180.0000000000    1.0041600000       2
     3234  3218  3220  3229    1  180.0000000000    1.0041600000       2
     3216  3218  3234  3221    1  0.0000000000      0.6508444444       3
     3216  3218  3234  3235    1  0.0000000000      0.6508444444       3
     3216  3218  3234  3236    1  0.0000000000      0.6508444444       3
     3219  3218  3234  3221    1  0.0000000000      0.6508444444       3
     3219  3218  3234  3235    1  0.0000000000      0.6508444444       3
     3219  3218  3234  3236    1  0.0000000000      0.6508444444       3
     3220  3218  3234  3221    1  0.0000000000      0.6508444444       3
     3220  3218  3234  3235    1  0.0000000000      0.6508444444       3
     3220  3218  3234  3236    1  0.0000000000      0.6508444444       3
     1346  1348  1349  1350    1  0.0000000000      0.0000000000       1
     1346  1348  1349  1351    1  180.0000000000    1.0041600000       2
     1346  1348  1349  1373    1  180.0000000000    1.0041600000       2
     1378  1348  1349  1350    1  0.0000000000      0.0000000000       1
     1378  1348  1349  1351    1  180.0000000000    1.0041600000       2
     1378  1348  1349  1373    1  180.0000000000    1.0041600000       2
     1346  1348  1378  1351    1  180.0000000000    15.1670000000      2
     1346  1348  1378  1379    1  180.0000000000    15.1670000000      2
     1349  1348  1378  1351    1  180.0000000000    15.1670000000      2
     1349  1348  1378  1379    1  180.0000000000    15.1670000000      2
     1349  1351  1353  1354    1  0.0000000000      0.5439200000       3
     1349  1351  1353  1355    1  0.0000000000      2.1756800000       3
     1349  1351  1353  1375    1  0.0000000000      2.1756800000       3
     1352  1351  1353  1354    1  0.0000000000      0.5020800000       3
     1352  1351  1353  1355    1  0.0000000000      0.5439200000       3
     1352  1351  1353  1375    1  0.0000000000      0.5439200000       3
     1378  1351  1353  1354    1  0.0000000000      0.6508444444       3
     1378  1351  1353  1355    1  0.0000000000      0.6508444444       3
     1378  1351  1353  1375    1  0.0000000000      0.6508444444       3
     1349  1351  1378  1348    1  180.0000000000    1.0041600000       2
     1349  1351  1378  1379    1  180.0000000000    1.0041600000       2
     1352  1351  1378  1348    1  0.0000000000      0.0000000000       1
     1352  1351  1378  1379    1  0.0000000000      0.0000000000       1
     1353  1351  1378  1348    1  180.0000000000    1.0041600000       2
     1353  1351  1378  1379    1  180.0000000000    1.0041600000       2
     3214  3216  3218  3219    1  0.0000000000      0.5439200000       3
     3214  3216  3218  3220    1  0.0000000000      0.6508444444       3
     3214  3216  3218  3234    1  0.0000000000      2.1756800000       3
     3217  3216  3218  3219    1  0.0000000000      0.5020800000       3
     3217  3216  3218  3220    1  0.0000000000      0.6508444444       3
     3217  3216  3218  3234    1  0.0000000000      0.5439200000       3
     3238  3216  3218  3219    1  0.0000000000      0.5439200000       3
     3238  3216  3218  3220    1  0.0000000000      0.6508444444       3
     3238  3216  3218  3234    1  0.0000000000      2.1756800000       3
     3214  3216  3238  3236    1  0.0000000000      0.6508444444       3
     3214  3216  3238  3239    1  0.0000000000      0.6508444444       3
     3214  3216  3238  3240    1  0.0000000000      0.6508444444       3
     3217  3216  3238  3236    1  0.0000000000      0.5439200000       3
     3217  3216  3238  3239    1  0.0000000000      0.5020800000       3
     3217  3216  3238  3240    1  0.0000000000      0.5020800000       3
     3218  3216  3238  3236    1  0.0000000000      0.6508444444       3
     3218  3216  3238  3239    1  0.0000000000      0.6508444444       3
     3218  3216  3238  3240    1  0.0000000000      0.6508444444       3
     6806  6822  6824  6800    1  0.0000000000      2.1756800000       3
     6806  6822  6824  6825    1  0.0000000000      0.5439200000       3
     6806  6822  6824  6826    1  0.0000000000      2.1756800000       3
     6809  6822  6824  6800    1  0.0000000000      0.6508444444       3
     6809  6822  6824  6825    1  0.0000000000      0.6508444444       3
     6809  6822  6824  6826    1  0.0000000000      0.6508444444       3
     6823  6822  6824  6800    1  0.0000000000      0.5439200000       3
     6823  6822  6824  6825    1  0.0000000000      0.5020800000       3
     6823  6822  6824  6826    1  0.0000000000      0.5439200000       3
     6800  6824  6826  6804    1  0.0000000000      0.6508444444       3
     6800  6824  6826  6827    1  0.0000000000      0.6508444444       3
     6800  6824  6826  6828    1  0.0000000000      0.6508444444       3
     6822  6824  6826  6804    1  0.0000000000      0.6508444444       3
     6822  6824  6826  6827    1  0.0000000000      0.6508444444       3
     6822  6824  6826  6828    1  0.0000000000      0.6508444444       3
     6825  6824  6826  6804    1  0.0000000000      0.5439200000       3
     6825  6824  6826  6827    1  0.0000000000      0.5020800000       3
     6825  6824  6826  6828    1  0.0000000000      0.5020800000       3
     4464  4469  4470  4471    1  180.0000000000    15.1670000000      2
     5405  4469  4470  5403    1  180.0000000000    15.1670000000      2
     4464  4469  5405  5406    1  0.0000000000      0.0000000000       1
     4470  4469  5405  5406    1  0.0000000000      0.0000000000       1
     4464  4469  5405  5407    1  180.0000000000    1.0041600000       2
     4470  4469  5405  5407    1  180.0000000000    1.0041600000       2
     4464  4469  5405  5403    1  180.0000000000    1.0041600000       2
     4470  4469  5405  5403    1  180.0000000000    1.0041600000       2
     4464  4469  4470  5403    1  180.0000000000    15.1670000000      2
     2530  2531  2532  2533    1  180.0000000000    15.1670000000      2
     2530  2531  2532  2537    1  180.0000000000    15.1670000000      2
     2544  2531  2532  2533    1  180.0000000000    15.1670000000      2
     2530  2531  2544  2528    1  180.0000000000    1.0041600000       2
     2530  2531  2544  2545    1  0.0000000000      0.0000000000       1
     2530  2531  2544  2546    1  180.0000000000    1.0041600000       2
     2532  2531  2544  2528    1  180.0000000000    1.0041600000       2
     2532  2531  2544  2545    1  0.0000000000      0.0000000000       1
     2532  2531  2544  2546    1  180.0000000000    1.0041600000       2
     6799  6800  6802  6803    1  0.0000000000      0.6508444444       3
     6799  6800  6802  6804    1  0.0000000000      0.6508444444       3
     6799  6800  6802  6829    1  0.0000000000      0.6508444444       3
     6801  6800  6802  6803    1  0.0000000000      0.6508444444       3
     6801  6800  6802  6804    1  0.0000000000      0.6508444444       3
     6801  6800  6802  6829    1  0.0000000000      0.6508444444       3
     6824  6800  6802  6803    1  0.0000000000      0.6508444444       3
     6824  6800  6802  6804    1  0.0000000000      0.6508444444       3
     6824  6800  6802  6829    1  0.0000000000      0.6508444444       3
     6799  6800  6824  6822    1  0.0000000000      0.6508444444       3
     6799  6800  6824  6825    1  0.0000000000      0.6508444444       3
     6799  6800  6824  6826    1  0.0000000000      0.6508444444       3
     6801  6800  6824  6822    1  0.0000000000      0.5439200000       3
     6801  6800  6824  6825    1  0.0000000000      0.5020800000       3
     6801  6800  6824  6826    1  0.0000000000      0.5439200000       3
     6802  6800  6824  6822    1  0.0000000000      2.1756800000       3
     6802  6800  6824  6825    1  0.0000000000      0.5439200000       3
     6802  6800  6824  6826    1  0.0000000000      2.1756800000       3
     6797  6799  6800  6801    1  0.0000000000      0.0000000000       1
     6797  6799  6800  6802    1  180.0000000000    1.0041600000       2
     6797  6799  6800  6824    1  180.0000000000    1.0041600000       2
     6829  6799  6800  6801    1  0.0000000000      0.0000000000       1
     6829  6799  6800  6802    1  180.0000000000    1.0041600000       2
     6829  6799  6800  6824    1  180.0000000000    1.0041600000       2
     6797  6799  6829  6802    1  180.0000000000    15.1670000000      2
     6797  6799  6829  6830    1  180.0000000000    15.1670000000      2
     6800  6799  6829  6802    1  180.0000000000    15.1670000000      2
     6800  6799  6829  6830    1  180.0000000000    15.1670000000      2
     3211  3212  3214  3215    1  0.0000000000      0.6508444444       3
     3211  3212  3214  3216    1  0.0000000000      0.6508444444       3
     3211  3212  3214  3241    1  0.0000000000      0.6508444444       3
     3213  3212  3214  3215    1  0.0000000000      0.6508444444       3
     3213  3212  3214  3216    1  0.0000000000      0.6508444444       3
     3213  3212  3214  3241    1  0.0000000000      0.6508444444       3
     3236  3212  3214  3215    1  0.0000000000      0.6508444444       3
     3236  3212  3214  3216    1  0.0000000000      0.6508444444       3
     3236  3212  3214  3241    1  0.0000000000      0.6508444444       3
     3211  3212  3236  3234    1  0.0000000000      0.6508444444       3
     3211  3212  3236  3237    1  0.0000000000      0.6508444444       3
     3211  3212  3236  3238    1  0.0000000000      0.6508444444       3
     3213  3212  3236  3234    1  0.0000000000      0.5439200000       3
     3213  3212  3236  3237    1  0.0000000000      0.5020800000       3
     3213  3212  3236  3238    1  0.0000000000      0.5439200000       3
     3214  3212  3236  3234    1  0.0000000000      2.1756800000       3
     3214  3212  3236  3237    1  0.0000000000      0.5439200000       3
     3214  3212  3236  3238    1  0.0000000000      2.1756800000       3
     3228  3229  3220  3218    1  180.0000000000    15.1670000000      2
     3220  3229  3230  3231    1  0.0000000000      0.0000000000       2
     3220  3229  3230  3232    1  0.0000000000      0.0000000000       2
     3220  3229  3230  3233    1  0.0000000000      0.0000000000       2
     3230  3229  3228  3227    1  180.0000000000    15.1670000000      2
     3220  3229  3228  2919    1  180.0000000000    15.1670000000      2
     3230  3229  3228  2919    1  180.0000000000    15.1670000000      2
     2537  2538  2539  2530    1  180.0000000000    15.1670000000      2
     1886  2538  2537  1884    1  180.0000000000    15.1670000000      2
     2537  2538  1886  1884    1  180.0000000000    1.0041600000       2
     2539  2538  1886  1884    1  180.0000000000    1.0041600000       2
     2537  2538  1886  1887    1  0.0000000000      0.0000000000       1
     2539  2538  1886  1887    1  0.0000000000      0.0000000000       1
     2537  2538  1886  1888    1  180.0000000000    1.0041600000       2
     2539  2538  1886  1888    1  180.0000000000    1.0041600000       2
     2539  2538  2537  1884    1  180.0000000000    15.1670000000      2
     5407  5405  5403  5404    1  0.0000000000      0.6508444444       3
     4469  5405  5403  5404    1  0.0000000000      0.6508444444       3
     4469  5405  5403  4470    1  0.0000000000      0.6508444444       3
     5407  5405  5403  4470    1  0.0000000000      0.6508444444       3
     3218  3220  3221  3222    1  180.0000000000    15.1670000000      2
     3218  3220  3221  3234    1  180.0000000000    15.1670000000      2
     3229  3220  3221  3222    1  180.0000000000    15.1670000000      2
     3229  3220  3221  3234    1  180.0000000000    15.1670000000      2
     3218  3220  3229  3230    1  180.0000000000    15.1670000000      2
     3221  3220  3229  3228    1  180.0000000000    15.1670000000      2
     3221  3220  3229  3230    1  180.0000000000    15.1670000000      2
     6815  6816  6817  6808    1  180.0000000000    15.1670000000      2
     21    6816  6815  23      1  180.0000000000    15.1670000000      2
     6815  6816  21    19      1  180.0000000000    1.0041600000       2
     6817  6816  21    19      1  180.0000000000    1.0041600000       2
     6815  6816  21    22      1  0.0000000000      0.0000000000       1
     6817  6816  21    22      1  0.0000000000      0.0000000000       1
     6815  6816  21    23      1  180.0000000000    1.0041600000       2
     6817  6816  21    23      1  180.0000000000    1.0041600000       2
     6817  6816  6815  23      1  180.0000000000    15.1670000000      2
     2532  2537  2538  2539    1  180.0000000000    15.1670000000      2
     2532  2537  2538  1886    1  180.0000000000    15.1670000000      2
     2532  2537  1884  1885    1  0.0000000000      0.0000000000       1
     2538  2537  1884  1885    1  0.0000000000      0.0000000000       1
     2532  2537  1884  1886    1  180.0000000000    1.0041600000       2
     2538  2537  1884  1886    1  180.0000000000    1.0041600000       2
     2532  2537  1884  1882    1  180.0000000000    1.0041600000       2
     2538  2537  1884  1882    1  180.0000000000    1.0041600000       2
     2489  2494  2495  2496    1  180.0000000000    15.1670000000      2
     2489  2494  2495  2517    1  180.0000000000    15.1670000000      2
     2515  2494  2495  2496    1  180.0000000000    15.1670000000      2
     2515  2494  2495  2517    1  180.0000000000    15.1670000000      2
     2489  2494  2515  2514    1  180.0000000000    15.1670000000      2
     2489  2494  2515  2516    1  180.0000000000    15.1670000000      2
     2495  2494  2515  2514    1  180.0000000000    15.1670000000      2
     2495  2494  2515  2516    1  180.0000000000    15.1670000000      2
     1882  1884  1886  1887    1  0.0000000000      0.6508444444       3
     1882  1884  1886  1888    1  0.0000000000      0.6508444444       3
     1885  1884  1886  1887    1  0.0000000000      0.6508444444       3
     1882  1884  1886  2538    1  0.0000000000      0.6508444444       3
     2537  1884  1886  1887    1  0.0000000000      0.6508444444       3
     5711  5712  5713  5704    1  180.0000000000    15.1670000000      2
     5713  5712  5711  90      1  180.0000000000    15.1670000000      2
     5711  5712  92    90      1  180.0000000000    1.0041600000       2
     5713  5712  92    90      1  180.0000000000    1.0041600000       2
     5711  5712  92    93      1  0.0000000000      0.0000000000       1
     5713  5712  92    93      1  0.0000000000      0.0000000000       1
     5711  5712  92    94      1  180.0000000000    1.0041600000       2
     5713  5712  92    94      1  180.0000000000    1.0041600000       2
     2494  2495  2496  2497    1  180.0000000000    15.1670000000      2
     2494  2495  2496  2498    1  180.0000000000    15.1670000000      2
     2517  2495  2496  2497    1  180.0000000000    15.1670000000      2
     2517  2495  2496  2498    1  180.0000000000    15.1670000000      2
     2494  2495  2517  2518    1  180.0000000000    4.1840000000       2
     2494  2495  2517  2552    1  180.0000000000    4.1840000000       2
     2496  2495  2517  2518    1  180.0000000000    4.1840000000       2
     2496  2495  2517  2552    1  180.0000000000    4.1840000000       2
     4463  4464  4465  4466    1  0.0000000000      0.0000000000       2
     4463  4464  4465  4467    1  0.0000000000      0.0000000000       2
     4463  4464  4465  4468    1  0.0000000000      0.0000000000       2
     4463  4464  4469  4470    1  180.0000000000    15.1670000000      2
     4465  4464  4469  4470    1  180.0000000000    15.1670000000      2
     4469  4464  4463  4476    1  180.0000000000    15.1670000000      2
     4465  4464  4469  5405    1  180.0000000000    15.1670000000      2
     4463  4464  4469  5405    1  180.0000000000    15.1670000000      2
     80    81    83    84      1  180.0000000000    15.1670000000      2
     80    81    83    99      1  180.0000000000    15.1670000000      2
     82    81    83    84      1  180.0000000000    15.1670000000      2
     82    81    83    99      1  180.0000000000    15.1670000000      2
     2519  2521  2522  2523    1  0.0000000000      0.0000000000       1
     2519  2521  2522  2524    1  180.0000000000    1.0041600000       2
     2519  2521  2522  2546    1  180.0000000000    1.0041600000       2
     2551  2521  2522  2523    1  0.0000000000      0.0000000000       1
     2551  2521  2522  2524    1  180.0000000000    1.0041600000       2
     2551  2521  2522  2546    1  180.0000000000    1.0041600000       2
     2519  2521  2551  2524    1  180.0000000000    15.1670000000      2
     2519  2521  2551  2552    1  180.0000000000    15.1670000000      2
     2522  2521  2551  2524    1  180.0000000000    15.1670000000      2
     2522  2521  2551  2552    1  180.0000000000    15.1670000000      2
     2485  2489  2490  2491    1  0.0000000000      0.5439200000       3
     2485  2489  2490  2492    1  0.0000000000      0.5439200000       3
     2485  2489  2490  2493    1  0.0000000000      0.5439200000       3
     2494  2489  2490  2491    1  0.0000000000      0.6508444444       3
     2494  2489  2490  2492    1  0.0000000000      0.6508444444       3
     2494  2489  2490  2493    1  0.0000000000      0.6508444444       3
     2518  2489  2490  2491    1  0.0000000000      0.6508444444       3
     2518  2489  2490  2492    1  0.0000000000      0.6508444444       3
     2518  2489  2490  2493    1  0.0000000000      0.6508444444       3
     2485  2489  2494  2495    1  0.0000000000      0.0000000000       2
     2485  2489  2494  2515    1  180.0000000000    1.0041600000       2
     2490  2489  2494  2495    1  0.0000000000      0.0000000000       2
     2490  2489  2494  2515    1  180.0000000000    1.0041600000       2
     2518  2489  2494  2495    1  0.0000000000      0.0000000000       2
     2518  2489  2494  2515    1  180.0000000000    0.0000000000       2
     2485  2489  2518  2517    1  0.0000000000      0.0000000000       2
     2485  2489  2518  2519    1  180.0000000000    1.0041600000       2
     2490  2489  2518  2517    1  0.0000000000      0.0000000000       2
     2490  2489  2518  2519    1  180.0000000000    1.0041600000       2
     2494  2489  2518  2517    1  0.0000000000      0.0000000000       2
     2494  2489  2518  2519    1  180.0000000000    0.0000000000       2
     5715  5714  5713  5712    1  0.0000000000      0.0000000000       2
     5716  5714  5713  5712    1  0.0000000000      0.0000000000       2
     5717  5714  5713  5712    1  0.0000000000      0.0000000000       2
     5702  5704  5705  5706    1  180.0000000000    15.1670000000      2
     5702  5704  5705  5718    1  180.0000000000    15.1670000000      2
     5713  5704  5705  5706    1  180.0000000000    15.1670000000      2
     5713  5704  5705  5718    1  180.0000000000    15.1670000000      2
     5702  5704  5713  5714    1  180.0000000000    15.1670000000      2
     5705  5704  5713  5712    1  180.0000000000    15.1670000000      2
     5705  5704  5713  5714    1  180.0000000000    15.1670000000      2
     84    86    88    89      1  0.0000000000      0.5439200000       3
     84    86    88    96      1  0.0000000000      2.1756800000       3
     87    86    88    89      1  0.0000000000      0.5020800000       3
     87    86    88    96      1  0.0000000000      0.5439200000       3
     99    86    88    89      1  0.0000000000      0.6508444444       3
     99    86    88    96      1  0.0000000000      0.6508444444       3
     84    86    99    83      1  180.0000000000    1.0041600000       2
     84    86    99    100     1  180.0000000000    1.0041600000       2
     87    86    99    83      1  0.0000000000      0.0000000000       1
     87    86    99    100     1  0.0000000000      0.0000000000       1
     88    86    99    83      1  180.0000000000    1.0041600000       2
     88    86    99    100     1  180.0000000000    1.0041600000       2
     2521  2522  2524  2525    1  0.0000000000      0.6508444444       3
     2521  2522  2524  2526    1  0.0000000000      0.6508444444       3
     2521  2522  2524  2551    1  0.0000000000      0.6508444444       3
     2523  2522  2524  2525    1  0.0000000000      0.6508444444       3
     2523  2522  2524  2526    1  0.0000000000      0.6508444444       3
     2523  2522  2524  2551    1  0.0000000000      0.6508444444       3
     2546  2522  2524  2525    1  0.0000000000      0.6508444444       3
     2546  2522  2524  2526    1  0.0000000000      0.6508444444       3
     2546  2522  2524  2551    1  0.0000000000      0.6508444444       3
     2521  2522  2546  2544    1  0.0000000000      0.6508444444       3
     2521  2522  2546  2547    1  0.0000000000      0.6508444444       3
     2521  2522  2546  2548    1  0.0000000000      0.6508444444       3
     2523  2522  2546  2544    1  0.0000000000      0.5439200000       3
     2523  2522  2546  2547    1  0.0000000000      0.5020800000       3
     2523  2522  2546  2548    1  0.0000000000      0.5439200000       3
     2524  2522  2546  2544    1  0.0000000000      2.1756800000       3
     2524  2522  2546  2547    1  0.0000000000      0.5439200000       3
     2524  2522  2546  2548    1  0.0000000000      2.1756800000       3
     1888  1886  1884  1885    1  0.0000000000      0.6508444444       3
     2538  1886  1884  1885    1  0.0000000000      0.6508444444       3
     2538  1886  1884  2537    1  0.0000000000      0.6508444444       3
     1888  1886  1884  2537    1  0.0000000000      0.6508444444       3
     2489  2518  2519  2520    1  180.0000000000    15.1670000000      2
     2489  2518  2519  2521    1  180.0000000000    15.1670000000      2
     2517  2518  2519  2520    1  180.0000000000    15.1670000000      2
     2517  2518  2519  2521    1  180.0000000000    15.1670000000      2
     83    84    86    87      1  0.0000000000      0.6508444444       3
     83    84    86    88      1  0.0000000000      0.6508444444       3
     83    84    86    99      1  0.0000000000      0.6508444444       3
     85    84    86    87      1  0.0000000000      0.6508444444       3
     85    84    86    88      1  0.0000000000      0.6508444444       3
     85    84    86    99      1  0.0000000000      0.6508444444       3
     94    84    86    87      1  0.0000000000      0.6508444444       3
     94    84    86    88      1  0.0000000000      0.6508444444       3
     94    84    86    99      1  0.0000000000      0.6508444444       3
     83    84    94    95      1  0.0000000000      0.6508444444       3
     83    84    94    96      1  0.0000000000      0.6508444444       3
     85    84    94    95      1  0.0000000000      0.5020800000       3
     85    84    94    96      1  0.0000000000      0.5439200000       3
     86    84    94    95      1  0.0000000000      0.5439200000       3
     86    84    94    96      1  0.0000000000      2.1756800000       3
     2521  2551  2552  2517    1  180.0000000000    15.1670000000      2
     2521  2551  2552  2553    1  180.0000000000    15.1670000000      2
     2524  2551  2552  2517    1  180.0000000000    15.1670000000      2
     2524  2551  2552  2553    1  180.0000000000    15.1670000000      2
     2522  2546  2548  2526    1  0.0000000000      0.6508444444       3
     2522  2546  2548  2549    1  0.0000000000      0.6508444444       3
     2522  2546  2548  2550    1  0.0000000000      0.6508444444       3
     2544  2546  2548  2526    1  0.0000000000      0.6508444444       3
     2544  2546  2548  2549    1  0.0000000000      0.6508444444       3
     2544  2546  2548  2550    1  0.0000000000      0.6508444444       3
     2547  2546  2548  2526    1  0.0000000000      0.5439200000       3
     2547  2546  2548  2549    1  0.0000000000      0.5020800000       3
     2547  2546  2548  2550    1  0.0000000000      0.5020800000       3
     94    92    90    91      1  0.0000000000      0.6508444444       3
     94    92    90    5711    1  0.0000000000      0.6508444444       3
     5712  92    90    91      1  0.0000000000      0.6508444444       3
     2537  2532  2531  2544    1  180.0000000000    15.1670000000      2
     2531  2532  2533  2534    1  0.0000000000      0.0000000000       2
     2531  2532  2533  2535    1  0.0000000000      0.0000000000       2
     2531  2532  2533  2536    1  0.0000000000      0.0000000000       2
     2531  2532  2537  2538    1  180.0000000000    15.1670000000      2
     2533  2532  2537  2538    1  180.0000000000    15.1670000000      2
     2531  2532  2537  1884    1  180.0000000000    15.1670000000      2
     2533  2532  2537  1884    1  180.0000000000    15.1670000000      2
     2495  2517  2518  2489    1  180.0000000000    15.1670000000      2
     2495  2517  2518  2519    1  180.0000000000    15.1670000000      2
     2552  2517  2518  2489    1  180.0000000000    15.1670000000      2
     2552  2517  2518  2519    1  180.0000000000    15.1670000000      2
     2495  2517  2552  2551    1  180.0000000000    15.1670000000      2
     2495  2517  2552  2553    1  180.0000000000    15.1670000000      2
     2518  2517  2552  2551    1  180.0000000000    15.1670000000      2
     2518  2517  2552  2553    1  180.0000000000    15.1670000000      2
     2522  2524  2526  2527    1  0.0000000000      0.5439200000       3
     2522  2524  2526  2528    1  0.0000000000      2.1756800000       3
     2522  2524  2526  2548    1  0.0000000000      2.1756800000       3
     2525  2524  2526  2527    1  0.0000000000      0.5020800000       3
     2525  2524  2526  2528    1  0.0000000000      0.5439200000       3
     2525  2524  2526  2548    1  0.0000000000      0.5439200000       3
     2551  2524  2526  2527    1  0.0000000000      0.6508444444       3
     2551  2524  2526  2528    1  0.0000000000      0.6508444444       3
     2551  2524  2526  2548    1  0.0000000000      0.6508444444       3
     2522  2524  2551  2521    1  180.0000000000    1.0041600000       2
     2522  2524  2551  2552    1  180.0000000000    1.0041600000       2
     2525  2524  2551  2521    1  0.0000000000      0.0000000000       1
     2525  2524  2551  2552    1  0.0000000000      0.0000000000       1
     2526  2524  2551  2521    1  180.0000000000    1.0041600000       2
     2526  2524  2551  2552    1  180.0000000000    1.0041600000       2
     81    83    84    85      1  0.0000000000      0.0000000000       1
     81    83    84    86      1  180.0000000000    1.0041600000       2
     81    83    84    94      1  180.0000000000    1.0041600000       2
     99    83    84    85      1  0.0000000000      0.0000000000       1
     99    83    84    86      1  180.0000000000    1.0041600000       2
     99    83    84    94      1  180.0000000000    1.0041600000       2
     81    83    99    86      1  180.0000000000    15.1670000000      2
     81    83    99    100     1  180.0000000000    15.1670000000      2
     84    83    99    86      1  180.0000000000    15.1670000000      2
     84    83    99    100     1  180.0000000000    15.1670000000      2
     94    96    88    90      1  0.0000000000      0.6508444444       3
     88    96    94    92      1  0.0000000000      0.6508444444       3
     2486  2485  2489  2490    1  0.0000000000      0.5439200000       3
     2486  2485  2489  2494    1  0.0000000000      0.6508444444       3
     2486  2485  2489  2518    1  0.0000000000      0.6508444444       3
     2487  2485  2489  2490    1  0.0000000000      0.5439200000       3
     2487  2485  2489  2494    1  0.0000000000      0.6508444444       3
     2487  2485  2489  2518    1  0.0000000000      0.6508444444       3
     2488  2485  2489  2490    1  0.0000000000      0.5439200000       3
     2488  2485  2489  2494    1  0.0000000000      0.6508444444       3
     2488  2485  2489  2518    1  0.0000000000      0.6508444444       3
     6796  6797  6799  6800    1  180.0000000000    15.1670000000      2
     6796  6797  6799  6829    1  180.0000000000    15.1670000000      2
     6798  6797  6799  6800    1  180.0000000000    15.1670000000      2
     6798  6797  6799  6829    1  180.0000000000    15.1670000000      2
     5712  5713  5704  5702    1  180.0000000000    15.1670000000      2
     5714  5713  5712  5711    1  180.0000000000    15.1670000000      2
     5704  5713  5714  5715    1  0.0000000000      0.0000000000       2
     5704  5713  5714  5716    1  0.0000000000      0.0000000000       2
     5704  5713  5714  5717    1  0.0000000000      0.0000000000       2
     5704  5713  5712  92      1  180.0000000000    15.1670000000      2
     5714  5713  5712  92      1  180.0000000000    15.1670000000      2
     2534  2533  2532  2537    1  0.0000000000      0.0000000000       2
     2535  2533  2532  2537    1  0.0000000000      0.0000000000       2
     2536  2533  2532  2537    1  0.0000000000      0.0000000000       2
     92    94    84    83      1  0.0000000000      0.6508444444       3
     92    94    84    85      1  0.0000000000      0.5439200000       3
     92    94    84    86      1  0.0000000000      2.1756800000       3
     84    94    92    90      1  0.0000000000      2.1756800000       3
     95    94    92    90      1  0.0000000000      0.5439200000       3
     96    94    92    90      1  0.0000000000      2.1756800000       3
     84    94    92    93      1  0.0000000000      0.5439200000       3
     95    94    92    93      1  0.0000000000      0.5020800000       3
     96    94    92    93      1  0.0000000000      0.5439200000       3
     84    94    96    88      1  0.0000000000      0.6508444444       3
     84    94    96    97      1  0.0000000000      0.6508444444       3
     84    94    96    98      1  0.0000000000      0.6508444444       3
     92    94    96    97      1  0.0000000000      0.6508444444       3
     92    94    96    98      1  0.0000000000      0.6508444444       3
     95    94    96    88      1  0.0000000000      0.5439200000       3
     95    94    96    97      1  0.0000000000      0.5020800000       3
     95    94    96    98      1  0.0000000000      0.5020800000       3
     84    94    92    5712    1  0.0000000000      0.6508444444       3
     95    94    92    5712    1  0.0000000000      0.6508444444       3
     96    94    92    5712    1  0.0000000000      0.6508444444       3
     83    99    100   79      1  180.0000000000    15.1670000000      2
     83    99    100   101     1  180.0000000000    15.1670000000      2
     86    99    100   79      1  180.0000000000    15.1670000000      2
     86    99    100   101     1  180.0000000000    15.1670000000      2
     2518  2519  2521  2522    1  180.0000000000    15.1670000000      2
     2518  2519  2521  2551    1  180.0000000000    15.1670000000      2
     2520  2519  2521  2522    1  180.0000000000    15.1670000000      2
     2520  2519  2521  2551    1  180.0000000000    15.1670000000      2
     6474  6473  6472  6471    1  0.0000000000      0.0000000000       2
     6475  6473  6472  6471    1  0.0000000000      0.0000000000       2
     6476  6473  6472  6471    1  0.0000000000      0.0000000000       2
     4430  4446  4447  4426    1  180.0000000000    15.1670000000      2
     4430  4446  4447  4448    1  180.0000000000    15.1670000000      2
     4433  4446  4447  4426    1  180.0000000000    15.1670000000      2
     4433  4446  4447  4448    1  180.0000000000    15.1670000000      2
     6471  6472  6463  6461    1  180.0000000000    15.1670000000      2
     6463  6472  6473  6474    1  0.0000000000      0.0000000000       2
     6463  6472  6473  6475    1  0.0000000000      0.0000000000       2
     6463  6472  6473  6476    1  0.0000000000      0.0000000000       2
     6473  6472  6471  6470    1  180.0000000000    15.1670000000      2
     6463  6472  6471  1677    1  180.0000000000    15.1670000000      2
     6473  6472  6471  1677    1  180.0000000000    15.1670000000      2
     4428  4430  4431  4432    1  0.0000000000      0.0000000000       1
     4428  4430  4431  4433    1  180.0000000000    1.0041600000       2
     4428  4430  4431  4441    1  180.0000000000    1.0041600000       2
     4446  4430  4431  4432    1  0.0000000000      0.0000000000       1
     4446  4430  4431  4433    1  180.0000000000    1.0041600000       2
     4446  4430  4431  4441    1  180.0000000000    1.0041600000       2
     4428  4430  4446  4433    1  180.0000000000    15.1670000000      2
     4428  4430  4446  4447    1  180.0000000000    15.1670000000      2
     4431  4430  4446  4433    1  180.0000000000    15.1670000000      2
     4431  4430  4446  4447    1  180.0000000000    15.1670000000      2
     4421  4426  4427  4428    1  180.0000000000    15.1670000000      2
     4421  4426  4427  4449    1  180.0000000000    15.1670000000      2
     4447  4426  4427  4428    1  180.0000000000    15.1670000000      2
     4447  4426  4427  4449    1  180.0000000000    15.1670000000      2
     4421  4426  4447  4446    1  180.0000000000    15.1670000000      2
     4421  4426  4447  4448    1  180.0000000000    15.1670000000      2
     4427  4426  4447  4446    1  180.0000000000    15.1670000000      2
     4427  4426  4447  4448    1  180.0000000000    15.1670000000      2
     4427  4428  4430  4431    1  180.0000000000    15.1670000000      2
     4427  4428  4430  4446    1  180.0000000000    15.1670000000      2
     4429  4428  4430  4431    1  180.0000000000    15.1670000000      2
     4429  4428  4430  4446    1  180.0000000000    15.1670000000      2
     4426  4427  4428  4429    1  180.0000000000    15.1670000000      2
     4426  4427  4428  4430    1  180.0000000000    15.1670000000      2
     4449  4427  4428  4429    1  180.0000000000    15.1670000000      2
     4449  4427  4428  4430    1  180.0000000000    15.1670000000      2
     4426  4427  4449  4450    1  180.0000000000    4.1840000000       2
     4426  4427  4449  4484    1  180.0000000000    4.1840000000       2
     4428  4427  4449  4450    1  180.0000000000    4.1840000000       2
     4428  4427  4449  4484    1  180.0000000000    4.1840000000       2
     4427  4449  4450  4421    1  180.0000000000    15.1670000000      2
     4427  4449  4450  4451    1  180.0000000000    15.1670000000      2
     4484  4449  4450  4421    1  180.0000000000    15.1670000000      2
     4484  4449  4450  4451    1  180.0000000000    15.1670000000      2
     4427  4449  4484  4483    1  180.0000000000    15.1670000000      2
     4427  4449  4484  4485    1  180.0000000000    15.1670000000      2
     4450  4449  4484  4483    1  180.0000000000    15.1670000000      2
     4450  4449  4484  4485    1  180.0000000000    15.1670000000      2
     4430  4431  4433  4434    1  0.0000000000      0.6508444444       3
     4430  4431  4433  4435    1  0.0000000000      0.6508444444       3
     4430  4431  4433  4446    1  0.0000000000      0.6508444444       3
     4432  4431  4433  4434    1  0.0000000000      0.6508444444       3
     4432  4431  4433  4435    1  0.0000000000      0.6508444444       3
     4432  4431  4433  4446    1  0.0000000000      0.6508444444       3
     4441  4431  4433  4434    1  0.0000000000      0.6508444444       3
     4441  4431  4433  4435    1  0.0000000000      0.6508444444       3
     4441  4431  4433  4446    1  0.0000000000      0.6508444444       3
     4430  4431  4441  4442    1  0.0000000000      0.6508444444       3
     4430  4431  4441  4443    1  0.0000000000      0.6508444444       3
     4432  4431  4441  4442    1  0.0000000000      0.5020800000       3
     4432  4431  4441  4443    1  0.0000000000      0.5439200000       3
     4433  4431  4441  4442    1  0.0000000000      0.5439200000       3
     4433  4431  4441  4443    1  0.0000000000      2.1756800000       3
     4316  4318  4320  4321    1  0.0000000000      0.5439200000       3
     4316  4318  4320  4322    1  0.0000000000      2.1756800000       3
     4316  4318  4320  4342    1  0.0000000000      2.1756800000       3
     4319  4318  4320  4321    1  0.0000000000      0.5020800000       3
     4319  4318  4320  4322    1  0.0000000000      0.5439200000       3
     4319  4318  4320  4342    1  0.0000000000      0.5439200000       3
     4345  4318  4320  4321    1  0.0000000000      0.6508444444       3
     4345  4318  4320  4322    1  0.0000000000      0.6508444444       3
     4345  4318  4320  4342    1  0.0000000000      0.6508444444       3
     4316  4318  4345  4315    1  180.0000000000    1.0041600000       2
     4316  4318  4345  4346    1  180.0000000000    1.0041600000       2
     4319  4318  4345  4315    1  0.0000000000      0.0000000000       1
     4319  4318  4345  4346    1  0.0000000000      0.0000000000       1
     4320  4318  4345  4315    1  180.0000000000    1.0041600000       2
     4320  4318  4345  4346    1  180.0000000000    1.0041600000       2
     4421  4450  4451  4452    1  180.0000000000    15.1670000000      2
     4421  4450  4451  4453    1  180.0000000000    15.1670000000      2
     4449  4450  4451  4452    1  180.0000000000    15.1670000000      2
     4449  4450  4451  4453    1  180.0000000000    15.1670000000      2
     4439  4441  4431  4430    1  0.0000000000      0.6508444444       3
     4439  4441  4431  4432    1  0.0000000000      0.5439200000       3
     4439  4441  4431  4433    1  0.0000000000      2.1756800000       3
     4431  4441  4439  4437    1  0.0000000000      2.1756800000       3
     4442  4441  4439  4437    1  0.0000000000      0.5439200000       3
     4443  4441  4439  4437    1  0.0000000000      2.1756800000       3
     4431  4441  4439  4440    1  0.0000000000      0.5439200000       3
     4442  4441  4439  4440    1  0.0000000000      0.5020800000       3
     4443  4441  4439  4440    1  0.0000000000      0.5439200000       3
     4431  4441  4443  4435    1  0.0000000000      0.6508444444       3
     4431  4441  4443  4444    1  0.0000000000      0.6508444444       3
     4431  4441  4443  4445    1  0.0000000000      0.6508444444       3
     4439  4441  4443  4444    1  0.0000000000      0.6508444444       3
     4439  4441  4443  4445    1  0.0000000000      0.6508444444       3
     4442  4441  4443  4435    1  0.0000000000      0.5439200000       3
     4442  4441  4443  4444    1  0.0000000000      0.5020800000       3
     4442  4441  4443  4445    1  0.0000000000      0.5020800000       3
     4431  4441  4439  5988    1  0.0000000000      0.6508444444       3
     4442  4441  4439  5988    1  0.0000000000      0.6508444444       3
     4443  4441  4439  5988    1  0.0000000000      0.6508444444       3
     4318  4320  4322  4323    1  0.0000000000      0.5439200000       3
     4318  4320  4322  4324    1  0.0000000000      0.6508444444       3
     4318  4320  4322  4338    1  0.0000000000      2.1756800000       3
     4321  4320  4322  4323    1  0.0000000000      0.5020800000       3
     4321  4320  4322  4324    1  0.0000000000      0.6508444444       3
     4321  4320  4322  4338    1  0.0000000000      0.5439200000       3
     4342  4320  4322  4323    1  0.0000000000      0.5439200000       3
     4342  4320  4322  4324    1  0.0000000000      0.6508444444       3
     4342  4320  4322  4338    1  0.0000000000      2.1756800000       3
     4318  4320  4342  4340    1  0.0000000000      0.6508444444       3
     4318  4320  4342  4343    1  0.0000000000      0.6508444444       3
     4318  4320  4342  4344    1  0.0000000000      0.6508444444       3
     4321  4320  4342  4340    1  0.0000000000      0.5439200000       3
     4321  4320  4342  4343    1  0.0000000000      0.5020800000       3
     4321  4320  4342  4344    1  0.0000000000      0.5020800000       3
     4322  4320  4342  4340    1  0.0000000000      0.6508444444       3
     4322  4320  4342  4343    1  0.0000000000      0.6508444444       3
     4322  4320  4342  4344    1  0.0000000000      0.6508444444       3
     6470  6471  6472  6463    1  180.0000000000    15.1670000000      2
     6472  6471  6470  1679    1  180.0000000000    15.1670000000      2
     6472  6471  1677  1675    1  180.0000000000    1.0041600000       2
     6470  6471  1677  1675    1  180.0000000000    1.0041600000       2
     6472  6471  1677  1678    1  0.0000000000      0.0000000000       1
     6470  6471  1677  1678    1  0.0000000000      0.0000000000       1
     6472  6471  1677  1679    1  180.0000000000    1.0041600000       2
     6470  6471  1677  1679    1  180.0000000000    1.0041600000       2
     2933  2935  2936  2937    1  0.0000000000      0.0000000000       1
     2933  2935  2936  2938    1  180.0000000000    1.0041600000       2
     2933  2935  2936  2960    1  180.0000000000    1.0041600000       2
     2965  2935  2936  2937    1  0.0000000000      0.0000000000       1
     2965  2935  2936  2938    1  180.0000000000    1.0041600000       2
     2965  2935  2936  2960    1  180.0000000000    1.0041600000       2
     2933  2935  2965  2938    1  180.0000000000    15.1670000000      2
     2933  2935  2965  2966    1  180.0000000000    15.1670000000      2
     2936  2935  2965  2938    1  180.0000000000    15.1670000000      2
     2936  2935  2965  2966    1  180.0000000000    15.1670000000      2
     2935  2965  2966  2931    1  180.0000000000    15.1670000000      2
     2935  2965  2966  2967    1  180.0000000000    15.1670000000      2
     2938  2965  2966  2931    1  180.0000000000    15.1670000000      2
     2938  2965  2966  2967    1  180.0000000000    15.1670000000      2
     4315  4316  4318  4319    1  0.0000000000      0.6508444444       3
     4315  4316  4318  4320    1  0.0000000000      0.6508444444       3
     4315  4316  4318  4345    1  0.0000000000      0.6508444444       3
     4317  4316  4318  4319    1  0.0000000000      0.6508444444       3
     4317  4316  4318  4320    1  0.0000000000      0.6508444444       3
     4317  4316  4318  4345    1  0.0000000000      0.6508444444       3
     4340  4316  4318  4319    1  0.0000000000      0.6508444444       3
     4340  4316  4318  4320    1  0.0000000000      0.6508444444       3
     4340  4316  4318  4345    1  0.0000000000      0.6508444444       3
     4315  4316  4340  4338    1  0.0000000000      0.6508444444       3
     4315  4316  4340  4341    1  0.0000000000      0.6508444444       3
     4315  4316  4340  4342    1  0.0000000000      0.6508444444       3
     4317  4316  4340  4338    1  0.0000000000      0.5439200000       3
     4317  4316  4340  4341    1  0.0000000000      0.5020800000       3
     4317  4316  4340  4342    1  0.0000000000      0.5439200000       3
     4318  4316  4340  4338    1  0.0000000000      2.1756800000       3
     4318  4316  4340  4341    1  0.0000000000      0.5439200000       3
     4318  4316  4340  4342    1  0.0000000000      2.1756800000       3
     4441  4443  4435  4437    1  0.0000000000      0.6508444444       3
     4435  4443  4441  4439    1  0.0000000000      0.6508444444       3
     4431  4433  4435  4436    1  0.0000000000      0.5439200000       3
     4431  4433  4435  4443    1  0.0000000000      2.1756800000       3
     4434  4433  4435  4436    1  0.0000000000      0.5020800000       3
     4434  4433  4435  4443    1  0.0000000000      0.5439200000       3
     4446  4433  4435  4436    1  0.0000000000      0.6508444444       3
     4446  4433  4435  4443    1  0.0000000000      0.6508444444       3
     4431  4433  4446  4430    1  180.0000000000    1.0041600000       2
     4431  4433  4446  4447    1  180.0000000000    1.0041600000       2
     4434  4433  4446  4430    1  0.0000000000      0.0000000000       1
     4434  4433  4446  4447    1  0.0000000000      0.0000000000       1
     4435  4433  4446  4430    1  180.0000000000    1.0041600000       2
     4435  4433  4446  4447    1  180.0000000000    1.0041600000       2
     2936  2938  2940  2941    1  0.0000000000      0.5439200000       3
     2936  2938  2940  2942    1  0.0000000000      2.1756800000       3
     2936  2938  2940  2962    1  0.0000000000      2.1756800000       3
     2939  2938  2940  2941    1  0.0000000000      0.5020800000       3
     2939  2938  2940  2942    1  0.0000000000      0.5439200000       3
     2939  2938  2940  2962    1  0.0000000000      0.5439200000       3
     2965  2938  2940  2941    1  0.0000000000      0.6508444444       3
     2965  2938  2940  2942    1  0.0000000000      0.6508444444       3
     2965  2938  2940  2962    1  0.0000000000      0.6508444444       3
     2936  2938  2965  2935    1  180.0000000000    1.0041600000       2
     2936  2938  2965  2966    1  180.0000000000    1.0041600000       2
     2939  2938  2965  2935    1  0.0000000000      0.0000000000       1
     2939  2938  2965  2966    1  0.0000000000      0.0000000000       1
     2940  2938  2965  2935    1  180.0000000000    1.0041600000       2
     2940  2938  2965  2966    1  180.0000000000    1.0041600000       2
     5838  5840  5842  5843    1  180.0000000000    1.0041600000       2
     5838  5840  5842  5851    1  180.0000000000    1.0041600000       2
     5841  5840  5842  5843    1  0.0000000000      0.0000000000       1
     5841  5840  5842  5851    1  0.0000000000      0.0000000000       1
     5856  5840  5842  5843    1  180.0000000000    1.0041600000       2
     5856  5840  5842  5851    1  180.0000000000    1.0041600000       2
     5838  5840  5856  5843    1  0.0000000000      0.6508444444       3
     5838  5840  5856  5857    1  0.0000000000      0.6508444444       3
     5838  5840  5856  5858    1  0.0000000000      0.6508444444       3
     5841  5840  5856  5843    1  0.0000000000      0.6508444444       3
     5841  5840  5856  5857    1  0.0000000000      0.6508444444       3
     5841  5840  5856  5858    1  0.0000000000      0.6508444444       3
     5842  5840  5856  5843    1  0.0000000000      0.6508444444       3
     5842  5840  5856  5857    1  0.0000000000      0.6508444444       3
     5842  5840  5856  5858    1  0.0000000000      0.6508444444       3
     5991  5990  5989  5988    1  0.0000000000      0.0000000000       2
     5992  5990  5989  5988    1  0.0000000000      0.0000000000       2
     5993  5990  5989  5988    1  0.0000000000      0.0000000000       2
     5836  5838  5840  5841    1  0.0000000000      0.5439200000       3
     5836  5838  5840  5842    1  0.0000000000      0.6508444444       3
     5836  5838  5840  5856    1  0.0000000000      2.1756800000       3
     5839  5838  5840  5841    1  0.0000000000      0.5020800000       3
     5839  5838  5840  5842    1  0.0000000000      0.6508444444       3
     5839  5838  5840  5856    1  0.0000000000      0.5439200000       3
     5860  5838  5840  5841    1  0.0000000000      0.5439200000       3
     5860  5838  5840  5842    1  0.0000000000      0.6508444444       3
     5860  5838  5840  5856    1  0.0000000000      2.1756800000       3
     5836  5838  5860  5858    1  0.0000000000      0.6508444444       3
     5836  5838  5860  5861    1  0.0000000000      0.6508444444       3
     5836  5838  5860  5862    1  0.0000000000      0.6508444444       3
     5839  5838  5860  5858    1  0.0000000000      0.5439200000       3
     5839  5838  5860  5861    1  0.0000000000      0.5020800000       3
     5839  5838  5860  5862    1  0.0000000000      0.5020800000       3
     5840  5838  5860  5858    1  0.0000000000      0.6508444444       3
     5840  5838  5860  5861    1  0.0000000000      0.6508444444       3
     5840  5838  5860  5862    1  0.0000000000      0.6508444444       3
     5840  5856  5858  5834    1  0.0000000000      2.1756800000       3
     5840  5856  5858  5859    1  0.0000000000      0.5439200000       3
     5840  5856  5858  5860    1  0.0000000000      2.1756800000       3
     5843  5856  5858  5834    1  0.0000000000      0.6508444444       3
     5843  5856  5858  5859    1  0.0000000000      0.6508444444       3
     5843  5856  5858  5860    1  0.0000000000      0.6508444444       3
     5857  5856  5858  5834    1  0.0000000000      0.5439200000       3
     5857  5856  5858  5859    1  0.0000000000      0.5020800000       3
     5857  5856  5858  5860    1  0.0000000000      0.5439200000       3
     4320  4322  4324  4325    1  180.0000000000    1.0041600000       2
     4320  4322  4324  4333    1  180.0000000000    1.0041600000       2
     4323  4322  4324  4325    1  0.0000000000      0.0000000000       1
     4323  4322  4324  4333    1  0.0000000000      0.0000000000       1
     4338  4322  4324  4325    1  180.0000000000    1.0041600000       2
     4338  4322  4324  4333    1  180.0000000000    1.0041600000       2
     4320  4322  4338  4325    1  0.0000000000      0.6508444444       3
     4320  4322  4338  4339    1  0.0000000000      0.6508444444       3
     4320  4322  4338  4340    1  0.0000000000      0.6508444444       3
     4323  4322  4338  4325    1  0.0000000000      0.6508444444       3
     4323  4322  4338  4339    1  0.0000000000      0.6508444444       3
     4323  4322  4338  4340    1  0.0000000000      0.6508444444       3
     4324  4322  4338  4325    1  0.0000000000      0.6508444444       3
     4324  4322  4338  4339    1  0.0000000000      0.6508444444       3
     4324  4322  4338  4340    1  0.0000000000      0.6508444444       3
     5842  5843  5844  5845    1  180.0000000000    15.1670000000      2
     5842  5843  5844  5849    1  180.0000000000    15.1670000000      2
     5856  5843  5844  5845    1  180.0000000000    15.1670000000      2
     5842  5843  5856  5840    1  180.0000000000    1.0041600000       2
     5842  5843  5856  5857    1  0.0000000000      0.0000000000       1
     5842  5843  5856  5858    1  180.0000000000    1.0041600000       2
     5844  5843  5856  5840    1  180.0000000000    1.0041600000       2
     5844  5843  5856  5857    1  0.0000000000      0.0000000000       1
     5844  5843  5856  5858    1  180.0000000000    1.0041600000       2
     1430  1429  1428  1433    1  0.0000000000      0.0000000000       2
     1431  1429  1428  1433    1  0.0000000000      0.0000000000       2
     1432  1429  1428  1433    1  0.0000000000      0.0000000000       2
     1424  1440  1442  1418    1  0.0000000000      2.1756800000       3
     1424  1440  1442  1443    1  0.0000000000      0.5439200000       3
     1424  1440  1442  1444    1  0.0000000000      2.1756800000       3
     1427  1440  1442  1418    1  0.0000000000      0.6508444444       3
     1427  1440  1442  1443    1  0.0000000000      0.6508444444       3
     1427  1440  1442  1444    1  0.0000000000      0.6508444444       3
     1441  1440  1442  1418    1  0.0000000000      0.5439200000       3
     1441  1440  1442  1443    1  0.0000000000      0.5020800000       3
     1441  1440  1442  1444    1  0.0000000000      0.5439200000       3
     1247  1252  1253  1254    1  180.0000000000    15.1670000000      2
     1247  1252  1253  1275    1  180.0000000000    15.1670000000      2
     1273  1252  1253  1254    1  180.0000000000    15.1670000000      2
     1273  1252  1253  1275    1  180.0000000000    15.1670000000      2
     1247  1252  1273  1272    1  180.0000000000    15.1670000000      2
     1247  1252  1273  1274    1  180.0000000000    15.1670000000      2
     1253  1252  1273  1272    1  180.0000000000    15.1670000000      2
     1253  1252  1273  1274    1  180.0000000000    15.1670000000      2
     3820  3822  3814  3816    1  0.0000000000      0.6508444444       3
     3814  3822  3820  3818    1  0.0000000000      0.6508444444       3
     3810  3812  3814  3815    1  0.0000000000      0.5439200000       3
     3810  3812  3814  3822    1  0.0000000000      2.1756800000       3
     3813  3812  3814  3815    1  0.0000000000      0.5020800000       3
     3813  3812  3814  3822    1  0.0000000000      0.5439200000       3
     3825  3812  3814  3815    1  0.0000000000      0.6508444444       3
     3825  3812  3814  3822    1  0.0000000000      0.6508444444       3
     3810  3812  3825  3809    1  180.0000000000    1.0041600000       2
     3810  3812  3825  3826    1  180.0000000000    1.0041600000       2
     3813  3812  3825  3809    1  0.0000000000      0.0000000000       1
     3813  3812  3825  3826    1  0.0000000000      0.0000000000       1
     3814  3812  3825  3809    1  180.0000000000    1.0041600000       2
     3814  3812  3825  3826    1  180.0000000000    1.0041600000       2
     659   683   685   663     1  0.0000000000      0.6508444444       3
     659   683   685   686     1  0.0000000000      0.6508444444       3
     659   683   685   687     1  0.0000000000      0.6508444444       3
     681   683   685   663     1  0.0000000000      0.6508444444       3
     681   683   685   686     1  0.0000000000      0.6508444444       3
     681   683   685   687     1  0.0000000000      0.6508444444       3
     684   683   685   663     1  0.0000000000      0.5439200000       3
     684   683   685   686     1  0.0000000000      0.5020800000       3
     684   683   685   687     1  0.0000000000      0.5020800000       3
     5849  5850  5851  5842    1  180.0000000000    15.1670000000      2
     5851  5850  5849  3818    1  180.0000000000    15.1670000000      2
     5849  5850  3816  3814    1  180.0000000000    1.0041600000       2
     5851  5850  3816  3814    1  180.0000000000    1.0041600000       2
     5849  5850  3816  3817    1  0.0000000000      0.0000000000       1
     5851  5850  3816  3817    1  0.0000000000      0.0000000000       1
     5849  5850  3816  3818    1  180.0000000000    1.0041600000       2
     5851  5850  3816  3818    1  180.0000000000    1.0041600000       2
     5853  5852  5851  5850    1  0.0000000000      0.0000000000       2
     5854  5852  5851  5850    1  0.0000000000      0.0000000000       2
     5855  5852  5851  5850    1  0.0000000000      0.0000000000       2
     3809  3810  3812  3813    1  0.0000000000      0.6508444444       3
     3809  3810  3812  3814    1  0.0000000000      0.6508444444       3
     3809  3810  3812  3825    1  0.0000000000      0.6508444444       3
     3811  3810  3812  3813    1  0.0000000000      0.6508444444       3
     3811  3810  3812  3814    1  0.0000000000      0.6508444444       3
     3811  3810  3812  3825    1  0.0000000000      0.6508444444       3
     3820  3810  3812  3813    1  0.0000000000      0.6508444444       3
     3820  3810  3812  3814    1  0.0000000000      0.6508444444       3
     3820  3810  3812  3825    1  0.0000000000      0.6508444444       3
     3809  3810  3820  3821    1  0.0000000000      0.6508444444       3
     3809  3810  3820  3822    1  0.0000000000      0.6508444444       3
     3811  3810  3820  3821    1  0.0000000000      0.5020800000       3
     3811  3810  3820  3822    1  0.0000000000      0.5439200000       3
     3812  3810  3820  3821    1  0.0000000000      0.5439200000       3
     3812  3810  3820  3822    1  0.0000000000      2.1756800000       3
     4456  4458  4460  4461    1  0.0000000000      0.5439200000       3
     4456  4458  4460  4462    1  0.0000000000      0.6508444444       3
     4456  4458  4460  4476    1  0.0000000000      2.1756800000       3
     4459  4458  4460  4461    1  0.0000000000      0.5020800000       3
     4459  4458  4460  4462    1  0.0000000000      0.6508444444       3
     4459  4458  4460  4476    1  0.0000000000      0.5439200000       3
     4480  4458  4460  4461    1  0.0000000000      0.5439200000       3
     4480  4458  4460  4462    1  0.0000000000      0.6508444444       3
     4480  4458  4460  4476    1  0.0000000000      2.1756800000       3
     4456  4458  4480  4478    1  0.0000000000      0.6508444444       3
     4456  4458  4480  4481    1  0.0000000000      0.6508444444       3
     4456  4458  4480  4482    1  0.0000000000      0.6508444444       3
     4459  4458  4480  4478    1  0.0000000000      0.5439200000       3
     4459  4458  4480  4481    1  0.0000000000      0.5020800000       3
     4459  4458  4480  4482    1  0.0000000000      0.5020800000       3
     4460  4458  4480  4478    1  0.0000000000      0.6508444444       3
     4460  4458  4480  4481    1  0.0000000000      0.6508444444       3
     4460  4458  4480  4482    1  0.0000000000      0.6508444444       3
     4451  4453  4454  4455    1  0.0000000000      0.0000000000       1
     4451  4453  4454  4456    1  180.0000000000    1.0041600000       2
     4451  4453  4454  4478    1  180.0000000000    1.0041600000       2
     4483  4453  4454  4455    1  0.0000000000      0.0000000000       1
     4483  4453  4454  4456    1  180.0000000000    1.0041600000       2
     4483  4453  4454  4478    1  180.0000000000    1.0041600000       2
     4451  4453  4483  4456    1  180.0000000000    15.1670000000      2
     4451  4453  4483  4484    1  180.0000000000    15.1670000000      2
     4454  4453  4483  4456    1  180.0000000000    15.1670000000      2
     4454  4453  4483  4484    1  180.0000000000    15.1670000000      2
     3814  3816  3818  3819    1  0.0000000000      0.6508444444       3
     3814  3816  3818  3820    1  0.0000000000      0.6508444444       3
     3817  3816  3818  3819    1  0.0000000000      0.6508444444       3
     3814  3816  3818  5849    1  0.0000000000      0.6508444444       3
     5850  3816  3818  3819    1  0.0000000000      0.6508444444       3
     4453  4483  4484  4449    1  180.0000000000    15.1670000000      2
     4453  4483  4484  4485    1  180.0000000000    15.1670000000      2
     4456  4483  4484  4449    1  180.0000000000    15.1670000000      2
     4456  4483  4484  4485    1  180.0000000000    15.1670000000      2
     665   681   683   659     1  0.0000000000      2.1756800000       3
     665   681   683   684     1  0.0000000000      0.5439200000       3
     665   681   683   685     1  0.0000000000      2.1756800000       3
     668   681   683   659     1  0.0000000000      0.6508444444       3
     668   681   683   684     1  0.0000000000      0.6508444444       3
     668   681   683   685     1  0.0000000000      0.6508444444       3
     682   681   683   659     1  0.0000000000      0.5439200000       3
     682   681   683   684     1  0.0000000000      0.5020800000       3
     682   681   683   685     1  0.0000000000      0.5439200000       3
     3818  3820  3810  3809    1  0.0000000000      0.6508444444       3
     3818  3820  3810  3811    1  0.0000000000      0.5439200000       3
     3818  3820  3810  3812    1  0.0000000000      2.1756800000       3
     3810  3820  3818  3816    1  0.0000000000      2.1756800000       3
     3821  3820  3818  3816    1  0.0000000000      0.5439200000       3
     3822  3820  3818  3816    1  0.0000000000      2.1756800000       3
     3810  3820  3818  3819    1  0.0000000000      0.5439200000       3
     3821  3820  3818  3819    1  0.0000000000      0.5020800000       3
     3822  3820  3818  3819    1  0.0000000000      0.5439200000       3
     3810  3820  3822  3814    1  0.0000000000      0.6508444444       3
     3810  3820  3822  3823    1  0.0000000000      0.6508444444       3
     3810  3820  3822  3824    1  0.0000000000      0.6508444444       3
     3818  3820  3822  3823    1  0.0000000000      0.6508444444       3
     3818  3820  3822  3824    1  0.0000000000      0.6508444444       3
     3821  3820  3822  3814    1  0.0000000000      0.5439200000       3
     3821  3820  3822  3823    1  0.0000000000      0.5020800000       3
     3821  3820  3822  3824    1  0.0000000000      0.5020800000       3
     3810  3820  3818  5849    1  0.0000000000      0.6508444444       3
     3821  3820  3818  5849    1  0.0000000000      0.6508444444       3
     3822  3820  3818  5849    1  0.0000000000      0.6508444444       3
     5844  5849  5850  5851    1  180.0000000000    15.1670000000      2
     3818  5849  5850  3816    1  180.0000000000    15.1670000000      2
     5844  5849  3818  3816    1  180.0000000000    1.0041600000       2
     5850  5849  3818  3816    1  180.0000000000    1.0041600000       2
     5844  5849  3818  3819    1  0.0000000000      0.0000000000       1
     5850  5849  3818  3819    1  0.0000000000      0.0000000000       1
     5844  5849  3818  3820    1  180.0000000000    1.0041600000       2
     5850  5849  3818  3820    1  180.0000000000    1.0041600000       2
     5844  5849  5850  3816    1  180.0000000000    15.1670000000      2
     4453  4454  4456  4457    1  0.0000000000      0.6508444444       3
     4453  4454  4456  4458    1  0.0000000000      0.6508444444       3
     4453  4454  4456  4483    1  0.0000000000      0.6508444444       3
     4455  4454  4456  4457    1  0.0000000000      0.6508444444       3
     4455  4454  4456  4458    1  0.0000000000      0.6508444444       3
     4455  4454  4456  4483    1  0.0000000000      0.6508444444       3
     4478  4454  4456  4457    1  0.0000000000      0.6508444444       3
     4478  4454  4456  4458    1  0.0000000000      0.6508444444       3
     4478  4454  4456  4483    1  0.0000000000      0.6508444444       3
     4453  4454  4478  4476    1  0.0000000000      0.6508444444       3
     4453  4454  4478  4479    1  0.0000000000      0.6508444444       3
     4453  4454  4478  4480    1  0.0000000000      0.6508444444       3
     4455  4454  4478  4476    1  0.0000000000      0.5439200000       3
     4455  4454  4478  4479    1  0.0000000000      0.5020800000       3
     4455  4454  4478  4480    1  0.0000000000      0.5439200000       3
     4456  4454  4478  4476    1  0.0000000000      2.1756800000       3
     4456  4454  4478  4479    1  0.0000000000      0.5439200000       3
     4456  4454  4478  4480    1  0.0000000000      2.1756800000       3
     3812  3814  3816  3817    1  0.0000000000      0.5439200000       3
     3812  3814  3816  3818    1  0.0000000000      2.1756800000       3
     3815  3814  3816  3817    1  0.0000000000      0.5020800000       3
     3815  3814  3816  3818    1  0.0000000000      0.5439200000       3
     3822  3814  3816  3817    1  0.0000000000      0.5439200000       3
     3822  3814  3816  3818    1  0.0000000000      2.1756800000       3
     3812  3814  3822  3820    1  0.0000000000      0.6508444444       3
     3812  3814  3822  3823    1  0.0000000000      0.6508444444       3
     3812  3814  3822  3824    1  0.0000000000      0.6508444444       3
     3815  3814  3822  3820    1  0.0000000000      0.5439200000       3
     3815  3814  3822  3823    1  0.0000000000      0.5020800000       3
     3815  3814  3822  3824    1  0.0000000000      0.5020800000       3
     3816  3814  3822  3823    1  0.0000000000      0.6508444444       3
     3816  3814  3822  3824    1  0.0000000000      0.6508444444       3
     3816  3814  3812  3810    1  0.0000000000      2.1756800000       3
     3816  3814  3812  3813    1  0.0000000000      0.5439200000       3
     3816  3814  3812  3825    1  0.0000000000      0.6508444444       3
     3815  3814  3816  5850    1  0.0000000000      0.6508444444       3
     3822  3814  3816  5850    1  0.0000000000      0.6508444444       3
     3812  3814  3816  5850    1  0.0000000000      0.6508444444       3
     1418  1442  1444  1422    1  0.0000000000      0.6508444444       3
     1418  1442  1444  1445    1  0.0000000000      0.6508444444       3
     1418  1442  1444  1446    1  0.0000000000      0.6508444444       3
     1440  1442  1444  1422    1  0.0000000000      0.6508444444       3
     1440  1442  1444  1445    1  0.0000000000      0.6508444444       3
     1440  1442  1444  1446    1  0.0000000000      0.6508444444       3
     1443  1442  1444  1422    1  0.0000000000      0.5439200000       3
     1443  1442  1444  1445    1  0.0000000000      0.5020800000       3
     1443  1442  1444  1446    1  0.0000000000      0.5020800000       3
     3820  3818  3816  3817    1  0.0000000000      0.6508444444       3
     5849  3818  3816  3817    1  0.0000000000      0.6508444444       3
     5849  3818  3816  5850    1  0.0000000000      0.6508444444       3
     3820  3818  3816  5850    1  0.0000000000      0.6508444444       3
     5850  5851  5842  5840    1  180.0000000000    15.1670000000      2
     5852  5851  5850  5849    1  180.0000000000    15.1670000000      2
     5842  5851  5852  5853    1  0.0000000000      0.0000000000       2
     5842  5851  5852  5854    1  0.0000000000      0.0000000000       2
     5842  5851  5852  5855    1  0.0000000000      0.0000000000       2
     5842  5851  5850  3816    1  180.0000000000    15.1670000000      2
     5852  5851  5850  3816    1  180.0000000000    15.1670000000      2
     5840  5842  5843  5844    1  180.0000000000    15.1670000000      2
     5840  5842  5843  5856    1  180.0000000000    15.1670000000      2
     5851  5842  5843  5844    1  180.0000000000    15.1670000000      2
     5851  5842  5843  5856    1  180.0000000000    15.1670000000      2
     5840  5842  5851  5852    1  180.0000000000    15.1670000000      2
     5843  5842  5851  5850    1  180.0000000000    15.1670000000      2
     5843  5842  5851  5852    1  180.0000000000    15.1670000000      2
     4454  4456  4458  4459    1  0.0000000000      0.5439200000       3
     4454  4456  4458  4460    1  0.0000000000      2.1756800000       3
     4454  4456  4458  4480    1  0.0000000000      2.1756800000       3
     4457  4456  4458  4459    1  0.0000000000      0.5020800000       3
     4457  4456  4458  4460    1  0.0000000000      0.5439200000       3
     4457  4456  4458  4480    1  0.0000000000      0.5439200000       3
     4483  4456  4458  4459    1  0.0000000000      0.6508444444       3
     4483  4456  4458  4460    1  0.0000000000      0.6508444444       3
     4483  4456  4458  4480    1  0.0000000000      0.6508444444       3
     4454  4456  4483  4453    1  180.0000000000    1.0041600000       2
     4454  4456  4483  4484    1  180.0000000000    1.0041600000       2
     4457  4456  4483  4453    1  0.0000000000      0.0000000000       1
     4457  4456  4483  4484    1  0.0000000000      0.0000000000       1
     4458  4456  4483  4453    1  180.0000000000    1.0041600000       2
     4458  4456  4483  4484    1  180.0000000000    1.0041600000       2
     5849  5844  5843  5856    1  180.0000000000    15.1670000000      2
     5843  5844  5845  5846    1  0.0000000000      0.0000000000       2
     5843  5844  5845  5847    1  0.0000000000      0.0000000000       2
     5843  5844  5845  5848    1  0.0000000000      0.0000000000       2
     5843  5844  5849  5850    1  180.0000000000    15.1670000000      2
     5845  5844  5849  5850    1  180.0000000000    15.1670000000      2
     5843  5844  5849  3818    1  180.0000000000    15.1670000000      2
     5845  5844  5849  3818    1  180.0000000000    15.1670000000      2
     674   669   668   681     1  180.0000000000    15.1670000000      2
     668   669   670   671     1  0.0000000000      0.0000000000       2
     668   669   670   672     1  0.0000000000      0.0000000000       2
     668   669   670   673     1  0.0000000000      0.0000000000       2
     668   669   674   675     1  180.0000000000    15.1670000000      2
     670   669   674   675     1  180.0000000000    15.1670000000      2
     668   669   674   2714    1  180.0000000000    15.1670000000      2
     670   669   674   2714    1  180.0000000000    15.1670000000      2
     4460  4476  4478  4454    1  0.0000000000      2.1756800000       3
     4460  4476  4478  4479    1  0.0000000000      0.5439200000       3
     4460  4476  4478  4480    1  0.0000000000      2.1756800000       3
     4463  4476  4478  4454    1  0.0000000000      0.6508444444       3
     4463  4476  4478  4479    1  0.0000000000      0.6508444444       3
     4463  4476  4478  4480    1  0.0000000000      0.6508444444       3
     4477  4476  4478  4454    1  0.0000000000      0.5439200000       3
     4477  4476  4478  4479    1  0.0000000000      0.5020800000       3
     4477  4476  4478  4480    1  0.0000000000      0.5439200000       3
     2984  2986  2988  2989    1  0.0000000000      0.5439200000       3
     2984  2986  2988  2990    1  0.0000000000      2.1756800000       3
     2987  2986  2988  2989    1  0.0000000000      0.5020800000       3
     2987  2986  2988  2990    1  0.0000000000      0.5439200000       3
     2994  2986  2988  2989    1  0.0000000000      0.5439200000       3
     2994  2986  2988  2990    1  0.0000000000      2.1756800000       3
     2984  2986  2994  2992    1  0.0000000000      0.6508444444       3
     2984  2986  2994  2995    1  0.0000000000      0.6508444444       3
     2984  2986  2994  2996    1  0.0000000000      0.6508444444       3
     2987  2986  2994  2992    1  0.0000000000      0.5439200000       3
     2987  2986  2994  2995    1  0.0000000000      0.5020800000       3
     2987  2986  2994  2996    1  0.0000000000      0.5020800000       3
     2988  2986  2994  2995    1  0.0000000000      0.6508444444       3
     2988  2986  2994  2996    1  0.0000000000      0.6508444444       3
     2988  2986  2984  2982    1  0.0000000000      2.1756800000       3
     2988  2986  2984  2985    1  0.0000000000      0.5439200000       3
     2988  2986  2984  2997    1  0.0000000000      0.6508444444       3
     2987  2986  2988  5022    1  0.0000000000      0.6508444444       3
     2994  2986  2988  5022    1  0.0000000000      0.6508444444       3
     2984  2986  2988  5022    1  0.0000000000      0.6508444444       3
     2982  2992  2990  2988    1  0.0000000000      2.1756800000       3
     2993  2992  2990  2988    1  0.0000000000      0.5439200000       3
     2994  2992  2990  2988    1  0.0000000000      2.1756800000       3
     2982  2992  2990  2991    1  0.0000000000      0.5439200000       3
     2993  2992  2990  2991    1  0.0000000000      0.5020800000       3
     2994  2992  2990  2991    1  0.0000000000      0.5439200000       3
     2990  2992  2982  2981    1  0.0000000000      0.6508444444       3
     2990  2992  2982  2983    1  0.0000000000      0.5439200000       3
     2990  2992  2982  2984    1  0.0000000000      2.1756800000       3
     2982  2992  2994  2986    1  0.0000000000      0.6508444444       3
     2982  2992  2994  2995    1  0.0000000000      0.6508444444       3
     2982  2992  2994  2996    1  0.0000000000      0.6508444444       3
     2990  2992  2994  2995    1  0.0000000000      0.6508444444       3
     2990  2992  2994  2996    1  0.0000000000      0.6508444444       3
     2993  2992  2994  2986    1  0.0000000000      0.5439200000       3
     2993  2992  2994  2995    1  0.0000000000      0.5020800000       3
     2993  2992  2994  2996    1  0.0000000000      0.5020800000       3
     2982  2992  2990  5021    1  0.0000000000      0.6508444444       3
     2993  2992  2990  5021    1  0.0000000000      0.6508444444       3
     2994  2992  2990  5021    1  0.0000000000      0.6508444444       3
     2992  2994  2986  2988    1  0.0000000000      0.6508444444       3
     2986  2994  2992  2990    1  0.0000000000      0.6508444444       3
     4279  4283  4284  4285    1  0.0000000000      0.5439200000       3
     4279  4283  4284  4286    1  0.0000000000      0.5439200000       3
     4279  4283  4284  4287    1  0.0000000000      0.5439200000       3
     4288  4283  4284  4285    1  0.0000000000      0.6508444444       3
     4288  4283  4284  4286    1  0.0000000000      0.6508444444       3
     4288  4283  4284  4287    1  0.0000000000      0.6508444444       3
     4312  4283  4284  4285    1  0.0000000000      0.6508444444       3
     4312  4283  4284  4286    1  0.0000000000      0.6508444444       3
     4312  4283  4284  4287    1  0.0000000000      0.6508444444       3
     4279  4283  4288  4289    1  0.0000000000      0.0000000000       2
     4279  4283  4288  4309    1  180.0000000000    1.0041600000       2
     4284  4283  4288  4289    1  0.0000000000      0.0000000000       2
     4284  4283  4288  4309    1  180.0000000000    1.0041600000       2
     4312  4283  4288  4289    1  0.0000000000      0.0000000000       2
     4312  4283  4288  4309    1  180.0000000000    0.0000000000       2
     4279  4283  4312  4311    1  0.0000000000      0.0000000000       2
     4279  4283  4312  4313    1  180.0000000000    1.0041600000       2
     4284  4283  4312  4311    1  0.0000000000      0.0000000000       2
     4284  4283  4312  4313    1  180.0000000000    1.0041600000       2
     4288  4283  4312  4311    1  0.0000000000      0.0000000000       2
     4288  4283  4312  4313    1  180.0000000000    0.0000000000       2
     2992  2990  2988  2989    1  0.0000000000      0.6508444444       3
     2992  2990  2988  5022    1  0.0000000000      0.6508444444       3
     5021  2990  2988  2989    1  0.0000000000      0.6508444444       3
     4283  4312  4313  4314    1  180.0000000000    15.1670000000      2
     4283  4312  4313  4315    1  180.0000000000    15.1670000000      2
     4311  4312  4313  4314    1  180.0000000000    15.1670000000      2
     4311  4312  4313  4315    1  180.0000000000    15.1670000000      2
     4283  4288  4289  4290    1  180.0000000000    15.1670000000      2
     4283  4288  4289  4311    1  180.0000000000    15.1670000000      2
     4309  4288  4289  4290    1  180.0000000000    15.1670000000      2
     4309  4288  4289  4311    1  180.0000000000    15.1670000000      2
     4283  4288  4309  4308    1  180.0000000000    15.1670000000      2
     4283  4288  4309  4310    1  180.0000000000    15.1670000000      2
     4289  4288  4309  4308    1  180.0000000000    15.1670000000      2
     4289  4288  4309  4310    1  180.0000000000    15.1670000000      2
     2986  2988  2990  2991    1  0.0000000000      0.6508444444       3
     2986  2988  2990  2992    1  0.0000000000      0.6508444444       3
     2989  2988  2990  2991    1  0.0000000000      0.6508444444       3
     5022  2988  2990  2991    1  0.0000000000      0.6508444444       3
     5022  2988  2990  5021    1  0.0000000000      0.6508444444       3
     2986  2988  2990  5021    1  0.0000000000      0.6508444444       3
     4288  4289  4290  4291    1  180.0000000000    15.1670000000      2
     4288  4289  4290  4292    1  180.0000000000    15.1670000000      2
     4311  4289  4290  4291    1  180.0000000000    15.1670000000      2
     4311  4289  4290  4292    1  180.0000000000    15.1670000000      2
     4288  4289  4311  4312    1  180.0000000000    4.1840000000       2
     4288  4289  4311  4346    1  180.0000000000    4.1840000000       2
     4290  4289  4311  4312    1  180.0000000000    4.1840000000       2
     4290  4289  4311  4346    1  180.0000000000    4.1840000000       2
     4292  4308  4309  4288    1  180.0000000000    15.1670000000      2
     4292  4308  4309  4310    1  180.0000000000    15.1670000000      2
     4295  4308  4309  4288    1  180.0000000000    15.1670000000      2
     4295  4308  4309  4310    1  180.0000000000    15.1670000000      2
     4290  4292  4293  4294    1  0.0000000000      0.0000000000       1
     4290  4292  4293  4295    1  180.0000000000    1.0041600000       2
     4290  4292  4293  4303    1  180.0000000000    1.0041600000       2
     4308  4292  4293  4294    1  0.0000000000      0.0000000000       1
     4308  4292  4293  4295    1  180.0000000000    1.0041600000       2
     4308  4292  4293  4303    1  180.0000000000    1.0041600000       2
     4290  4292  4308  4295    1  180.0000000000    15.1670000000      2
     4290  4292  4308  4309    1  180.0000000000    15.1670000000      2
     4293  4292  4308  4295    1  180.0000000000    15.1670000000      2
     4293  4292  4308  4309    1  180.0000000000    15.1670000000      2
     5021  5022  5023  5014    1  180.0000000000    15.1670000000      2
     2988  5022  5021  2990    1  180.0000000000    15.1670000000      2
     5021  5022  2988  2986    1  180.0000000000    1.0041600000       2
     5023  5022  2988  2986    1  180.0000000000    1.0041600000       2
     5021  5022  2988  2989    1  0.0000000000      0.0000000000       1
     5023  5022  2988  2989    1  0.0000000000      0.0000000000       1
     5021  5022  2988  2990    1  180.0000000000    1.0041600000       2
     5023  5022  2988  2990    1  180.0000000000    1.0041600000       2
     5023  5022  5021  2990    1  180.0000000000    15.1670000000      2
     4289  4290  4292  4293    1  180.0000000000    15.1670000000      2
     4289  4290  4292  4308    1  180.0000000000    15.1670000000      2
     4291  4290  4292  4293    1  180.0000000000    15.1670000000      2
     4291  4290  4292  4308    1  180.0000000000    15.1670000000      2
     4289  4311  4312  4283    1  180.0000000000    15.1670000000      2
     4289  4311  4312  4313    1  180.0000000000    15.1670000000      2
     4346  4311  4312  4283    1  180.0000000000    15.1670000000      2
     4346  4311  4312  4313    1  180.0000000000    15.1670000000      2
     4289  4311  4346  4345    1  180.0000000000    15.1670000000      2
     4289  4311  4346  4347    1  180.0000000000    15.1670000000      2
     4312  4311  4346  4345    1  180.0000000000    15.1670000000      2
     4312  4311  4346  4347    1  180.0000000000    15.1670000000      2
     5016  5021  5022  5023    1  180.0000000000    15.1670000000      2
     5016  5021  5022  2988    1  180.0000000000    15.1670000000      2
     5022  5021  2990  2988    1  180.0000000000    1.0041600000       2
     5016  5021  2990  2988    1  180.0000000000    1.0041600000       2
     5022  5021  2990  2991    1  0.0000000000      0.0000000000       1
     5016  5021  2990  2991    1  0.0000000000      0.0000000000       1
     5022  5021  2990  2992    1  180.0000000000    1.0041600000       2
     5016  5021  2990  2992    1  180.0000000000    1.0041600000       2
     4280  4279  4283  4284    1  0.0000000000      0.5439200000       3
     4280  4279  4283  4288    1  0.0000000000      0.6508444444       3
     4280  4279  4283  4312    1  0.0000000000      0.6508444444       3
     4281  4279  4283  4284    1  0.0000000000      0.5439200000       3
     4281  4279  4283  4288    1  0.0000000000      0.6508444444       3
     4281  4279  4283  4312    1  0.0000000000      0.6508444444       3
     4282  4279  4283  4284    1  0.0000000000      0.5439200000       3
     4282  4279  4283  4288    1  0.0000000000      0.6508444444       3
     4282  4279  4283  4312    1  0.0000000000      0.6508444444       3
     2936  2960  2962  2940    1  0.0000000000      0.6508444444       3
     2936  2960  2962  2963    1  0.0000000000      0.6508444444       3
     2936  2960  2962  2964    1  0.0000000000      0.6508444444       3
     2958  2960  2962  2940    1  0.0000000000      0.6508444444       3
     2958  2960  2962  2963    1  0.0000000000      0.6508444444       3
     2958  2960  2962  2964    1  0.0000000000      0.6508444444       3
     2961  2960  2962  2940    1  0.0000000000      0.5439200000       3
     2961  2960  2962  2963    1  0.0000000000      0.5020800000       3
     2961  2960  2962  2964    1  0.0000000000      0.5020800000       3
     2981  2982  2984  2985    1  0.0000000000      0.6508444444       3
     2981  2982  2984  2986    1  0.0000000000      0.6508444444       3
     2981  2982  2984  2997    1  0.0000000000      0.6508444444       3
     2983  2982  2984  2985    1  0.0000000000      0.6508444444       3
     2983  2982  2984  2986    1  0.0000000000      0.6508444444       3
     2983  2982  2984  2997    1  0.0000000000      0.6508444444       3
     2992  2982  2984  2985    1  0.0000000000      0.6508444444       3
     2992  2982  2984  2986    1  0.0000000000      0.6508444444       3
     2992  2982  2984  2997    1  0.0000000000      0.6508444444       3
     2981  2982  2992  2993    1  0.0000000000      0.6508444444       3
     2981  2982  2992  2994    1  0.0000000000      0.6508444444       3
     2983  2982  2992  2993    1  0.0000000000      0.5020800000       3
     2983  2982  2992  2994    1  0.0000000000      0.5439200000       3
     2984  2982  2992  2993    1  0.0000000000      0.5439200000       3
     2984  2982  2992  2994    1  0.0000000000      2.1756800000       3
     2982  2984  2986  2987    1  0.0000000000      0.5439200000       3
     2982  2984  2986  2994    1  0.0000000000      2.1756800000       3
     2985  2984  2986  2987    1  0.0000000000      0.5020800000       3
     2985  2984  2986  2994    1  0.0000000000      0.5439200000       3
     2997  2984  2986  2987    1  0.0000000000      0.6508444444       3
     2997  2984  2986  2994    1  0.0000000000      0.6508444444       3
     2982  2984  2997  2981    1  180.0000000000    1.0041600000       2
     2982  2984  2997  2998    1  180.0000000000    1.0041600000       2
     2985  2984  2997  2981    1  0.0000000000      0.0000000000       1
     2985  2984  2997  2998    1  0.0000000000      0.0000000000       1
     2986  2984  2997  2981    1  180.0000000000    1.0041600000       2
     2986  2984  2997  2998    1  180.0000000000    1.0041600000       2
     2935  2936  2938  2939    1  0.0000000000      0.6508444444       3
     2935  2936  2938  2940    1  0.0000000000      0.6508444444       3
     2935  2936  2938  2965    1  0.0000000000      0.6508444444       3
     2937  2936  2938  2939    1  0.0000000000      0.6508444444       3
     2937  2936  2938  2940    1  0.0000000000      0.6508444444       3
     2937  2936  2938  2965    1  0.0000000000      0.6508444444       3
     2960  2936  2938  2939    1  0.0000000000      0.6508444444       3
     2960  2936  2938  2940    1  0.0000000000      0.6508444444       3
     2960  2936  2938  2965    1  0.0000000000      0.6508444444       3
     2935  2936  2960  2958    1  0.0000000000      0.6508444444       3
     2935  2936  2960  2961    1  0.0000000000      0.6508444444       3
     2935  2936  2960  2962    1  0.0000000000      0.6508444444       3
     2937  2936  2960  2958    1  0.0000000000      0.5439200000       3
     2937  2936  2960  2961    1  0.0000000000      0.5020800000       3
     2937  2936  2960  2962    1  0.0000000000      0.5439200000       3
     2938  2936  2960  2958    1  0.0000000000      2.1756800000       3
     2938  2936  2960  2961    1  0.0000000000      0.5439200000       3
     2938  2936  2960  2962    1  0.0000000000      2.1756800000       3
     4312  4313  4315  4316    1  180.0000000000    15.1670000000      2
     4312  4313  4315  4345    1  180.0000000000    15.1670000000      2
     4314  4313  4315  4316    1  180.0000000000    15.1670000000      2
     4314  4313  4315  4345    1  180.0000000000    15.1670000000      2
     4313  4315  4316  4317    1  0.0000000000      0.0000000000       1
     4313  4315  4316  4318    1  180.0000000000    1.0041600000       2
     4313  4315  4316  4340    1  180.0000000000    1.0041600000       2
     4345  4315  4316  4317    1  0.0000000000      0.0000000000       1
     4345  4315  4316  4318    1  180.0000000000    1.0041600000       2
     4345  4315  4316  4340    1  180.0000000000    1.0041600000       2
     4313  4315  4345  4318    1  180.0000000000    15.1670000000      2
     4313  4315  4345  4346    1  180.0000000000    15.1670000000      2
     4316  4315  4345  4318    1  180.0000000000    15.1670000000      2
     4316  4315  4345  4346    1  180.0000000000    15.1670000000      2
     4315  4345  4346  4311    1  180.0000000000    15.1670000000      2
     4315  4345  4346  4347    1  180.0000000000    15.1670000000      2
     4318  4345  4346  4311    1  180.0000000000    15.1670000000      2
     4318  4345  4346  4347    1  180.0000000000    15.1670000000      2
     5024  5023  5022  5021    1  180.0000000000    15.1670000000      2
     5014  5023  5024  5025    1  0.0000000000      0.0000000000       2
     5014  5023  5024  5026    1  0.0000000000      0.0000000000       2
     5014  5023  5024  5027    1  0.0000000000      0.0000000000       2
     5022  5023  5014  5012    1  180.0000000000    15.1670000000      2
     5024  5023  5022  2988    1  180.0000000000    15.1670000000      2
     5014  5023  5022  2988    1  180.0000000000    15.1670000000      2
     4293  4295  4297  4298    1  0.0000000000      0.5439200000       3
     4293  4295  4297  4305    1  0.0000000000      2.1756800000       3
     4296  4295  4297  4298    1  0.0000000000      0.5020800000       3
     4296  4295  4297  4305    1  0.0000000000      0.5439200000       3
     4308  4295  4297  4298    1  0.0000000000      0.6508444444       3
     4308  4295  4297  4305    1  0.0000000000      0.6508444444       3
     4293  4295  4308  4292    1  180.0000000000    1.0041600000       2
     4293  4295  4308  4309    1  180.0000000000    1.0041600000       2
     4296  4295  4308  4292    1  0.0000000000      0.0000000000       1
     4296  4295  4308  4309    1  0.0000000000      0.0000000000       1
     4297  4295  4308  4292    1  180.0000000000    1.0041600000       2
     4297  4295  4308  4309    1  180.0000000000    1.0041600000       2
     4303  4305  4297  4299    1  0.0000000000      0.6508444444       3
     4297  4305  4303  4301    1  0.0000000000      0.6508444444       3
     2938  2940  2942  2943    1  0.0000000000      0.5439200000       3
     2938  2940  2942  2944    1  0.0000000000      0.6508444444       3
     2938  2940  2942  2958    1  0.0000000000      2.1756800000       3
     2941  2940  2942  2943    1  0.0000000000      0.5020800000       3
     2941  2940  2942  2944    1  0.0000000000      0.6508444444       3
     2941  2940  2942  2958    1  0.0000000000      0.5439200000       3
     2962  2940  2942  2943    1  0.0000000000      0.5439200000       3
     2962  2940  2942  2944    1  0.0000000000      0.6508444444       3
     2962  2940  2942  2958    1  0.0000000000      2.1756800000       3
     2938  2940  2962  2960    1  0.0000000000      0.6508444444       3
     2938  2940  2962  2963    1  0.0000000000      0.6508444444       3
     2938  2940  2962  2964    1  0.0000000000      0.6508444444       3
     2941  2940  2962  2960    1  0.0000000000      0.5439200000       3
     2941  2940  2962  2963    1  0.0000000000      0.5020800000       3
     2941  2940  2962  2964    1  0.0000000000      0.5020800000       3
     2942  2940  2962  2960    1  0.0000000000      0.6508444444       3
     2942  2940  2962  2963    1  0.0000000000      0.6508444444       3
     2942  2940  2962  2964    1  0.0000000000      0.6508444444       3
     2979  2981  2982  2983    1  0.0000000000      0.0000000000       1
     2979  2981  2982  2984    1  180.0000000000    1.0041600000       2
     2979  2981  2982  2992    1  180.0000000000    1.0041600000       2
     2997  2981  2982  2983    1  0.0000000000      0.0000000000       1
     2997  2981  2982  2984    1  180.0000000000    1.0041600000       2
     2997  2981  2982  2992    1  180.0000000000    1.0041600000       2
     2979  2981  2997  2984    1  180.0000000000    15.1670000000      2
     2979  2981  2997  2998    1  180.0000000000    15.1670000000      2
     2982  2981  2997  2984    1  180.0000000000    15.1670000000      2
     2982  2981  2997  2998    1  180.0000000000    15.1670000000      2
     3544  3542  3540  3541    1  0.0000000000      0.6508444444       3
     3544  3542  3540  2952    1  0.0000000000      0.6508444444       3
     2951  3542  3540  3541    1  0.0000000000      0.6508444444       3
     4979  4980  4982  4983    1  180.0000000000    15.1670000000      2
     4979  4980  4982  4998    1  180.0000000000    15.1670000000      2
     4981  4980  4982  4983    1  180.0000000000    15.1670000000      2
     4981  4980  4982  4998    1  180.0000000000    15.1670000000      2
     4299  4297  4295  4293    1  0.0000000000      2.1756800000       3
     4299  4297  4295  4296    1  0.0000000000      0.5439200000       3
     4299  4297  4295  4308    1  0.0000000000      0.6508444444       3
     4295  4297  4299  4300    1  0.0000000000      0.5439200000       3
     4295  4297  4299  4301    1  0.0000000000      2.1756800000       3
     4298  4297  4299  4300    1  0.0000000000      0.5020800000       3
     4298  4297  4299  4301    1  0.0000000000      0.5439200000       3
     4305  4297  4299  4300    1  0.0000000000      0.5439200000       3
     4305  4297  4299  4301    1  0.0000000000      2.1756800000       3
     4295  4297  4305  4303    1  0.0000000000      0.6508444444       3
     4295  4297  4305  4306    1  0.0000000000      0.6508444444       3
     4295  4297  4305  4307    1  0.0000000000      0.6508444444       3
     4298  4297  4305  4303    1  0.0000000000      0.5439200000       3
     4298  4297  4305  4306    1  0.0000000000      0.5020800000       3
     4298  4297  4305  4307    1  0.0000000000      0.5020800000       3
     4299  4297  4305  4306    1  0.0000000000      0.6508444444       3
     4299  4297  4305  4307    1  0.0000000000      0.6508444444       3
     4295  4297  4299  1434    1  0.0000000000      0.6508444444       3
     4298  4297  4299  1434    1  0.0000000000      0.6508444444       3
     4305  4297  4299  1434    1  0.0000000000      0.6508444444       3
     3007  3009  3011  3012    1  0.0000000000      0.5439200000       3
     3007  3009  3011  3013    1  0.0000000000      0.6508444444       3
     3007  3009  3011  3027    1  0.0000000000      2.1756800000       3
     3010  3009  3011  3012    1  0.0000000000      0.5020800000       3
     3010  3009  3011  3013    1  0.0000000000      0.6508444444       3
     3010  3009  3011  3027    1  0.0000000000      0.5439200000       3
     3031  3009  3011  3012    1  0.0000000000      0.5439200000       3
     3031  3009  3011  3013    1  0.0000000000      0.6508444444       3
     3031  3009  3011  3027    1  0.0000000000      2.1756800000       3
     3007  3009  3031  3029    1  0.0000000000      0.6508444444       3
     3007  3009  3031  3032    1  0.0000000000      0.6508444444       3
     3007  3009  3031  3033    1  0.0000000000      0.6508444444       3
     3010  3009  3031  3029    1  0.0000000000      0.5439200000       3
     3010  3009  3031  3032    1  0.0000000000      0.5020800000       3
     3010  3009  3031  3033    1  0.0000000000      0.5020800000       3
     3011  3009  3031  3029    1  0.0000000000      0.6508444444       3
     3011  3009  3031  3032    1  0.0000000000      0.6508444444       3
     3011  3009  3031  3033    1  0.0000000000      0.6508444444       3
     2942  2958  2960  2936    1  0.0000000000      2.1756800000       3
     2942  2958  2960  2961    1  0.0000000000      0.5439200000       3
     2942  2958  2960  2962    1  0.0000000000      2.1756800000       3
     2945  2958  2960  2936    1  0.0000000000      0.6508444444       3
     2945  2958  2960  2961    1  0.0000000000      0.6508444444       3
     2945  2958  2960  2962    1  0.0000000000      0.6508444444       3
     2959  2958  2960  2936    1  0.0000000000      0.5439200000       3
     2959  2958  2960  2961    1  0.0000000000      0.5020800000       3
     2959  2958  2960  2962    1  0.0000000000      0.5439200000       3
     2940  2942  2944  2945    1  180.0000000000    1.0041600000       2
     2940  2942  2944  2953    1  180.0000000000    1.0041600000       2
     2943  2942  2944  2945    1  0.0000000000      0.0000000000       1
     2943  2942  2944  2953    1  0.0000000000      0.0000000000       1
     2958  2942  2944  2945    1  180.0000000000    1.0041600000       2
     2958  2942  2944  2953    1  180.0000000000    1.0041600000       2
     2940  2942  2958  2945    1  0.0000000000      0.6508444444       3
     2940  2942  2958  2959    1  0.0000000000      0.6508444444       3
     2940  2942  2958  2960    1  0.0000000000      0.6508444444       3
     2943  2942  2958  2945    1  0.0000000000      0.6508444444       3
     2943  2942  2958  2959    1  0.0000000000      0.6508444444       3
     2943  2942  2958  2960    1  0.0000000000      0.6508444444       3
     2944  2942  2958  2945    1  0.0000000000      0.6508444444       3
     2944  2942  2958  2959    1  0.0000000000      0.6508444444       3
     2944  2942  2958  2960    1  0.0000000000      0.6508444444       3
     2948  2947  2946  2951    1  0.0000000000      0.0000000000       2
     2949  2947  2946  2951    1  0.0000000000      0.0000000000       2
     2950  2947  2946  2951    1  0.0000000000      0.0000000000       2
     4303  4301  4299  4300    1  0.0000000000      0.6508444444       3
     1433  4301  4299  4300    1  0.0000000000      0.6508444444       3
     1433  4301  4299  1434    1  0.0000000000      0.6508444444       3
     4303  4301  4299  1434    1  0.0000000000      0.6508444444       3
     1257  1267  1265  1263    1  0.0000000000      2.1756800000       3
     1268  1267  1265  1263    1  0.0000000000      0.5439200000       3
     1269  1267  1265  1263    1  0.0000000000      2.1756800000       3
     1257  1267  1265  1266    1  0.0000000000      0.5439200000       3
     1268  1267  1265  1266    1  0.0000000000      0.5020800000       3
     1269  1267  1265  1266    1  0.0000000000      0.5439200000       3
     1265  1267  1257  1256    1  0.0000000000      0.6508444444       3
     1265  1267  1257  1258    1  0.0000000000      0.5439200000       3
     1265  1267  1257  1259    1  0.0000000000      2.1756800000       3
     1257  1267  1269  1261    1  0.0000000000      0.6508444444       3
     1257  1267  1269  1270    1  0.0000000000      0.6508444444       3
     1257  1267  1269  1271    1  0.0000000000      0.6508444444       3
     1265  1267  1269  1270    1  0.0000000000      0.6508444444       3
     1265  1267  1269  1271    1  0.0000000000      0.6508444444       3
     1268  1267  1269  1261    1  0.0000000000      0.5439200000       3
     1268  1267  1269  1270    1  0.0000000000      0.5020800000       3
     1268  1267  1269  1271    1  0.0000000000      0.5020800000       3
     1257  1267  1265  4677    1  0.0000000000      0.6508444444       3
     1268  1267  1265  4677    1  0.0000000000      0.6508444444       3
     1269  1267  1265  4677    1  0.0000000000      0.6508444444       3
     2972  3001  3002  3003    1  180.0000000000    15.1670000000      2
     2972  3001  3002  3004    1  180.0000000000    15.1670000000      2
     3000  3001  3002  3003    1  180.0000000000    15.1670000000      2
     3000  3001  3002  3004    1  180.0000000000    15.1670000000      2
     2968  2972  2973  2974    1  0.0000000000      0.5439200000       3
     2968  2972  2973  2975    1  0.0000000000      0.5439200000       3
     2968  2972  2973  2976    1  0.0000000000      0.5439200000       3
     2977  2972  2973  2974    1  0.0000000000      0.6508444444       3
     2977  2972  2973  2975    1  0.0000000000      0.6508444444       3
     2977  2972  2973  2976    1  0.0000000000      0.6508444444       3
     3001  2972  2973  2974    1  0.0000000000      0.6508444444       3
     3001  2972  2973  2975    1  0.0000000000      0.6508444444       3
     3001  2972  2973  2976    1  0.0000000000      0.6508444444       3
     2968  2972  2977  2978    1  0.0000000000      0.0000000000       2
     2968  2972  2977  2998    1  180.0000000000    1.0041600000       2
     2973  2972  2977  2978    1  0.0000000000      0.0000000000       2
     2973  2972  2977  2998    1  180.0000000000    1.0041600000       2
     3001  2972  2977  2978    1  0.0000000000      0.0000000000       2
     3001  2972  2977  2998    1  180.0000000000    0.0000000000       2
     2968  2972  3001  3000    1  0.0000000000      0.0000000000       2
     2968  2972  3001  3002    1  180.0000000000    1.0041600000       2
     2973  2972  3001  3000    1  0.0000000000      0.0000000000       2
     2973  2972  3001  3002    1  180.0000000000    1.0041600000       2
     2977  2972  3001  3000    1  0.0000000000      0.0000000000       2
     2977  2972  3001  3002    1  180.0000000000    0.0000000000       2
     1428  1433  1434  1435    1  180.0000000000    15.1670000000      2
     4301  1433  1434  4299    1  180.0000000000    15.1670000000      2
     1428  1433  4301  4299    1  180.0000000000    1.0041600000       2
     1434  1433  4301  4299    1  180.0000000000    1.0041600000       2
     1428  1433  4301  4302    1  0.0000000000      0.0000000000       1
     1434  1433  4301  4302    1  0.0000000000      0.0000000000       1
     1428  1433  4301  4303    1  180.0000000000    1.0041600000       2
     1434  1433  4301  4303    1  180.0000000000    1.0041600000       2
     1428  1433  1434  4299    1  180.0000000000    15.1670000000      2
     2981  2997  2998  2977    1  180.0000000000    15.1670000000      2
     2981  2997  2998  2999    1  180.0000000000    15.1670000000      2
     2984  2997  2998  2977    1  180.0000000000    15.1670000000      2
     2984  2997  2998  2999    1  180.0000000000    15.1670000000      2
     4297  4299  4301  4302    1  0.0000000000      0.6508444444       3
     4297  4299  4301  4303    1  0.0000000000      0.6508444444       3
     4300  4299  4301  4302    1  0.0000000000      0.6508444444       3
     4297  4299  4301  1433    1  0.0000000000      0.6508444444       3
     1434  4299  4301  4302    1  0.0000000000      0.6508444444       3
     4301  4303  4293  4292    1  0.0000000000      0.6508444444       3
     4301  4303  4293  4294    1  0.0000000000      0.5439200000       3
     4301  4303  4293  4295    1  0.0000000000      2.1756800000       3
     4293  4303  4301  4299    1  0.0000000000      2.1756800000       3
     4304  4303  4301  4299    1  0.0000000000      0.5439200000       3
     4305  4303  4301  4299    1  0.0000000000      2.1756800000       3
     4293  4303  4301  4302    1  0.0000000000      0.5439200000       3
     4304  4303  4301  4302    1  0.0000000000      0.5020800000       3
     4305  4303  4301  4302    1  0.0000000000      0.5439200000       3
     4293  4303  4305  4297    1  0.0000000000      0.6508444444       3
     4293  4303  4305  4306    1  0.0000000000      0.6508444444       3
     4293  4303  4305  4307    1  0.0000000000      0.6508444444       3
     4301  4303  4305  4306    1  0.0000000000      0.6508444444       3
     4301  4303  4305  4307    1  0.0000000000      0.6508444444       3
     4304  4303  4305  4297    1  0.0000000000      0.5439200000       3
     4304  4303  4305  4306    1  0.0000000000      0.5020800000       3
     4304  4303  4305  4307    1  0.0000000000      0.5020800000       3
     4293  4303  4301  1433    1  0.0000000000      0.6508444444       3
     4304  4303  4301  1433    1  0.0000000000      0.6508444444       3
     4305  4303  4301  1433    1  0.0000000000      0.6508444444       3
     4679  4678  4677  4676    1  180.0000000000    15.1670000000      2
     4677  4678  4669  4667    1  180.0000000000    15.1670000000      2
     4669  4678  4679  4680    1  0.0000000000      0.0000000000       2
     4669  4678  4679  4681    1  0.0000000000      0.0000000000       2
     4669  4678  4679  4682    1  0.0000000000      0.0000000000       2
     4669  4678  4677  1265    1  180.0000000000    15.1670000000      2
     4679  4678  4677  1265    1  180.0000000000    15.1670000000      2
     3021  3022  3013  3011    1  180.0000000000    15.1670000000      2
     3023  3022  3021  3020    1  180.0000000000    15.1670000000      2
     3013  3022  3023  3024    1  0.0000000000      0.0000000000       2
     3013  3022  3023  3025    1  0.0000000000      0.0000000000       2
     3013  3022  3023  3026    1  0.0000000000      0.0000000000       2
     3013  3022  3021  3956    1  180.0000000000    15.1670000000      2
     3023  3022  3021  3956    1  180.0000000000    15.1670000000      2
     4292  4293  4295  4296    1  0.0000000000      0.6508444444       3
     4292  4293  4295  4297    1  0.0000000000      0.6508444444       3
     4292  4293  4295  4308    1  0.0000000000      0.6508444444       3
     4294  4293  4295  4296    1  0.0000000000      0.6508444444       3
     4294  4293  4295  4297    1  0.0000000000      0.6508444444       3
     4294  4293  4295  4308    1  0.0000000000      0.6508444444       3
     4303  4293  4295  4296    1  0.0000000000      0.6508444444       3
     4303  4293  4295  4297    1  0.0000000000      0.6508444444       3
     4303  4293  4295  4308    1  0.0000000000      0.6508444444       3
     4292  4293  4303  4304    1  0.0000000000      0.6508444444       3
     4292  4293  4303  4305    1  0.0000000000      0.6508444444       3
     4294  4293  4303  4304    1  0.0000000000      0.5020800000       3
     4294  4293  4303  4305    1  0.0000000000      0.5439200000       3
     4295  4293  4303  4304    1  0.0000000000      0.5439200000       3
     4295  4293  4303  4305    1  0.0000000000      2.1756800000       3
     3958  3956  3954  3955    1  0.0000000000      0.6508444444       3
     3021  3956  3954  3955    1  0.0000000000      0.6508444444       3
     3021  3956  3954  3020    1  0.0000000000      0.6508444444       3
     3958  3956  3954  3020    1  0.0000000000      0.6508444444       3
     3013  3014  3015  3016    1  180.0000000000    15.1670000000      2
     3013  3014  3015  3020    1  180.0000000000    15.1670000000      2
     3027  3014  3015  3016    1  180.0000000000    15.1670000000      2
     3013  3014  3027  3011    1  180.0000000000    1.0041600000       2
     3013  3014  3027  3028    1  0.0000000000      0.0000000000       1
     3013  3014  3027  3029    1  180.0000000000    1.0041600000       2
     3015  3014  3027  3011    1  180.0000000000    1.0041600000       2
     3015  3014  3027  3028    1  0.0000000000      0.0000000000       1
     3015  3014  3027  3029    1  180.0000000000    1.0041600000       2
     3004  3034  3035  3000    1  180.0000000000    15.1670000000      2
     3004  3034  3035  3036    1  180.0000000000    15.1670000000      2
     3007  3034  3035  3000    1  180.0000000000    15.1670000000      2
     3007  3034  3035  3036    1  180.0000000000    15.1670000000      2
     1437  1436  1435  1434    1  0.0000000000      0.0000000000       2
     1438  1436  1435  1434    1  0.0000000000      0.0000000000       2
     1439  1436  1435  1434    1  0.0000000000      0.0000000000       2
     2972  2977  2978  2979    1  180.0000000000    15.1670000000      2
     2972  2977  2978  3000    1  180.0000000000    15.1670000000      2
     2998  2977  2978  2979    1  180.0000000000    15.1670000000      2
     2998  2977  2978  3000    1  180.0000000000    15.1670000000      2
     2972  2977  2998  2997    1  180.0000000000    15.1670000000      2
     2972  2977  2998  2999    1  180.0000000000    15.1670000000      2
     2978  2977  2998  2997    1  180.0000000000    15.1670000000      2
     2978  2977  2998  2999    1  180.0000000000    15.1670000000      2
     3024  3023  3022  3021    1  0.0000000000      0.0000000000       2
     3025  3023  3022  3021    1  0.0000000000      0.0000000000       2
     3026  3023  3022  3021    1  0.0000000000      0.0000000000       2
     1261  1269  1267  1265    1  0.0000000000      0.6508444444       3
     1267  1269  1261  1263    1  0.0000000000      0.6508444444       3
     2977  2978  2979  2980    1  180.0000000000    15.1670000000      2
     2977  2978  2979  2981    1  180.0000000000    15.1670000000      2
     3000  2978  2979  2980    1  180.0000000000    15.1670000000      2
     3000  2978  2979  2981    1  180.0000000000    15.1670000000      2
     2977  2978  3000  3001    1  180.0000000000    4.1840000000       2
     2977  2978  3000  3035    1  180.0000000000    4.1840000000       2
     2979  2978  3000  3001    1  180.0000000000    4.1840000000       2
     2979  2978  3000  3035    1  180.0000000000    4.1840000000       2
     2969  2968  2972  2973    1  0.0000000000      0.5439200000       3
     2969  2968  2972  2977    1  0.0000000000      0.6508444444       3
     2969  2968  2972  3001    1  0.0000000000      0.6508444444       3
     2970  2968  2972  2973    1  0.0000000000      0.5439200000       3
     2970  2968  2972  2977    1  0.0000000000      0.6508444444       3
     2970  2968  2972  3001    1  0.0000000000      0.6508444444       3
     2971  2968  2972  2973    1  0.0000000000      0.5439200000       3
     2971  2968  2972  2977    1  0.0000000000      0.6508444444       3
     2971  2968  2972  3001    1  0.0000000000      0.6508444444       3
     1422  1424  1426  1427    1  180.0000000000    1.0041600000       2
     1422  1424  1426  1435    1  180.0000000000    1.0041600000       2
     1425  1424  1426  1427    1  0.0000000000      0.0000000000       1
     1425  1424  1426  1435    1  0.0000000000      0.0000000000       1
     1440  1424  1426  1427    1  180.0000000000    1.0041600000       2
     1440  1424  1426  1435    1  180.0000000000    1.0041600000       2
     1422  1424  1440  1427    1  0.0000000000      0.6508444444       3
     1422  1424  1440  1441    1  0.0000000000      0.6508444444       3
     1422  1424  1440  1442    1  0.0000000000      0.6508444444       3
     1425  1424  1440  1427    1  0.0000000000      0.6508444444       3
     1425  1424  1440  1441    1  0.0000000000      0.6508444444       3
     1425  1424  1440  1442    1  0.0000000000      0.6508444444       3
     1426  1424  1440  1427    1  0.0000000000      0.6508444444       3
     1426  1424  1440  1441    1  0.0000000000      0.6508444444       3
     1426  1424  1440  1442    1  0.0000000000      0.6508444444       3
     2978  3000  3001  2972    1  180.0000000000    15.1670000000      2
     2978  3000  3001  3002    1  180.0000000000    15.1670000000      2
     3035  3000  3001  2972    1  180.0000000000    15.1670000000      2
     3035  3000  3001  3002    1  180.0000000000    15.1670000000      2
     2978  3000  3035  3034    1  180.0000000000    15.1670000000      2
     2978  3000  3035  3036    1  180.0000000000    15.1670000000      2
     3001  3000  3035  3034    1  180.0000000000    15.1670000000      2
     3001  3000  3035  3036    1  180.0000000000    15.1670000000      2
     1424  1426  1427  1428    1  180.0000000000    15.1670000000      2
     1424  1426  1427  1440    1  180.0000000000    15.1670000000      2
     1435  1426  1427  1428    1  180.0000000000    15.1670000000      2
     1435  1426  1427  1440    1  180.0000000000    15.1670000000      2
     1424  1426  1435  1436    1  180.0000000000    15.1670000000      2
     1427  1426  1435  1434    1  180.0000000000    15.1670000000      2
     1427  1426  1435  1436    1  180.0000000000    15.1670000000      2
     1434  1435  1426  1424    1  180.0000000000    15.1670000000      2
     1436  1435  1434  1433    1  180.0000000000    15.1670000000      2
     1426  1435  1436  1437    1  0.0000000000      0.0000000000       2
     1426  1435  1436  1438    1  0.0000000000      0.0000000000       2
     1426  1435  1436  1439    1  0.0000000000      0.0000000000       2
     1426  1435  1434  4299    1  180.0000000000    15.1670000000      2
     1436  1435  1434  4299    1  180.0000000000    15.1670000000      2
     1263  1261  1259  1257    1  0.0000000000      2.1756800000       3
     1263  1261  1259  1260    1  0.0000000000      0.5439200000       3
     1263  1261  1259  1272    1  0.0000000000      0.6508444444       3
     1259  1261  1263  1264    1  0.0000000000      0.5439200000       3
     1259  1261  1263  1265    1  0.0000000000      2.1756800000       3
     1262  1261  1263  1264    1  0.0000000000      0.5020800000       3
     1262  1261  1263  1265    1  0.0000000000      0.5439200000       3
     1269  1261  1263  1264    1  0.0000000000      0.5439200000       3
     1269  1261  1263  1265    1  0.0000000000      2.1756800000       3
     1259  1261  1269  1267    1  0.0000000000      0.6508444444       3
     1259  1261  1269  1270    1  0.0000000000      0.6508444444       3
     1259  1261  1269  1271    1  0.0000000000      0.6508444444       3
     1262  1261  1269  1267    1  0.0000000000      0.5439200000       3
     1262  1261  1269  1270    1  0.0000000000      0.5020800000       3
     1262  1261  1269  1271    1  0.0000000000      0.5020800000       3
     1263  1261  1269  1270    1  0.0000000000      0.6508444444       3
     1263  1261  1269  1271    1  0.0000000000      0.6508444444       3
     1259  1261  1263  4676    1  0.0000000000      0.6508444444       3
     1262  1261  1263  4676    1  0.0000000000      0.6508444444       3
     1269  1261  1263  4676    1  0.0000000000      0.6508444444       3
     3009  3011  3013  3014    1  180.0000000000    1.0041600000       2
     3009  3011  3013  3022    1  180.0000000000    1.0041600000       2
     3012  3011  3013  3014    1  0.0000000000      0.0000000000       1
     3012  3011  3013  3022    1  0.0000000000      0.0000000000       1
     3027  3011  3013  3014    1  180.0000000000    1.0041600000       2
     3027  3011  3013  3022    1  180.0000000000    1.0041600000       2
     3009  3011  3027  3014    1  0.0000000000      0.6508444444       3
     3009  3011  3027  3028    1  0.0000000000      0.6508444444       3
     3009  3011  3027  3029    1  0.0000000000      0.6508444444       3
     3012  3011  3027  3014    1  0.0000000000      0.6508444444       3
     3012  3011  3027  3028    1  0.0000000000      0.6508444444       3
     3012  3011  3027  3029    1  0.0000000000      0.6508444444       3
     3013  3011  3027  3014    1  0.0000000000      0.6508444444       3
     3013  3011  3027  3028    1  0.0000000000      0.6508444444       3
     3013  3011  3027  3029    1  0.0000000000      0.6508444444       3
     1433  1434  1435  1426    1  180.0000000000    15.1670000000      2
     1435  1434  1433  4301    1  180.0000000000    15.1670000000      2
     1433  1434  4299  4297    1  180.0000000000    1.0041600000       2
     1435  1434  4299  4297    1  180.0000000000    1.0041600000       2
     1433  1434  4299  4300    1  0.0000000000      0.0000000000       1
     1435  1434  4299  4300    1  0.0000000000      0.0000000000       1
     1433  1434  4299  4301    1  180.0000000000    1.0041600000       2
     1435  1434  4299  4301    1  180.0000000000    1.0041600000       2
     3015  3020  3021  3022    1  180.0000000000    15.1670000000      2
     3015  3020  3021  3956    1  180.0000000000    15.1670000000      2
     3015  3020  3954  3955    1  0.0000000000      0.0000000000       1
     3021  3020  3954  3955    1  0.0000000000      0.0000000000       1
     3015  3020  3954  3956    1  180.0000000000    1.0041600000       2
     3021  3020  3954  3956    1  180.0000000000    1.0041600000       2
     3015  3020  3954  3952    1  180.0000000000    1.0041600000       2
     3021  3020  3954  3952    1  180.0000000000    1.0041600000       2
     4671  4676  4677  4678    1  180.0000000000    15.1670000000      2
     1263  4676  4677  1265    1  180.0000000000    15.1670000000      2
     4671  4676  1263  1261    1  180.0000000000    1.0041600000       2
     4677  4676  1263  1261    1  180.0000000000    1.0041600000       2
     4671  4676  1263  1264    1  0.0000000000      0.0000000000       1
     4677  4676  1263  1264    1  0.0000000000      0.0000000000       1
     4671  4676  1263  1265    1  180.0000000000    1.0041600000       2
     4677  4676  1263  1265    1  180.0000000000    1.0041600000       2
     4671  4676  4677  1265    1  180.0000000000    15.1670000000      2
     1257  1259  1261  1262    1  0.0000000000      0.5439200000       3
     1257  1259  1261  1269    1  0.0000000000      2.1756800000       3
     1260  1259  1261  1262    1  0.0000000000      0.5020800000       3
     1260  1259  1261  1269    1  0.0000000000      0.5439200000       3
     1272  1259  1261  1262    1  0.0000000000      0.6508444444       3
     1272  1259  1261  1269    1  0.0000000000      0.6508444444       3
     1257  1259  1272  1256    1  180.0000000000    1.0041600000       2
     1257  1259  1272  1273    1  180.0000000000    1.0041600000       2
     1260  1259  1272  1256    1  0.0000000000      0.0000000000       1
     1260  1259  1272  1273    1  0.0000000000      0.0000000000       1
     1261  1259  1272  1256    1  180.0000000000    1.0041600000       2
     1261  1259  1272  1273    1  180.0000000000    1.0041600000       2
     3952  3954  3956  3957    1  0.0000000000      0.6508444444       3
     3952  3954  3956  3958    1  0.0000000000      0.6508444444       3
     3955  3954  3956  3957    1  0.0000000000      0.6508444444       3
     3952  3954  3956  3021    1  0.0000000000      0.6508444444       3
     3020  3954  3956  3957    1  0.0000000000      0.6508444444       3
     1426  1427  1428  1429    1  180.0000000000    15.1670000000      2
     1426  1427  1428  1433    1  180.0000000000    15.1670000000      2
     1440  1427  1428  1429    1  180.0000000000    15.1670000000      2
     1426  1427  1440  1424    1  180.0000000000    1.0041600000       2
     1426  1427  1440  1441    1  0.0000000000      0.0000000000       1
     1426  1427  1440  1442    1  180.0000000000    1.0041600000       2
     1428  1427  1440  1424    1  180.0000000000    1.0041600000       2
     1428  1427  1440  1441    1  0.0000000000      0.0000000000       1
     1428  1427  1440  1442    1  180.0000000000    1.0041600000       2
     3011  3013  3014  3015    1  180.0000000000    15.1670000000      2
     3011  3013  3014  3027    1  180.0000000000    15.1670000000      2
     3022  3013  3014  3015    1  180.0000000000    15.1670000000      2
     3022  3013  3014  3027    1  180.0000000000    15.1670000000      2
     3011  3013  3022  3023    1  180.0000000000    15.1670000000      2
     3014  3013  3022  3021    1  180.0000000000    15.1670000000      2
     3014  3013  3022  3023    1  180.0000000000    15.1670000000      2
     1253  1254  1256  1257    1  180.0000000000    15.1670000000      2
     1253  1254  1256  1272    1  180.0000000000    15.1670000000      2
     1255  1254  1256  1257    1  180.0000000000    15.1670000000      2
     1255  1254  1256  1272    1  180.0000000000    15.1670000000      2
     1433  1428  1427  1440    1  180.0000000000    15.1670000000      2
     1427  1428  1429  1430    1  0.0000000000      0.0000000000       2
     1427  1428  1429  1431    1  0.0000000000      0.0000000000       2
     1427  1428  1429  1432    1  0.0000000000      0.0000000000       2
     1427  1428  1433  1434    1  180.0000000000    15.1670000000      2
     1429  1428  1433  1434    1  180.0000000000    15.1670000000      2
     1427  1428  1433  4301    1  180.0000000000    15.1670000000      2
     1429  1428  1433  4301    1  180.0000000000    15.1670000000      2
     3001  3002  3004  3005    1  180.0000000000    15.1670000000      2
     3001  3002  3004  3034    1  180.0000000000    15.1670000000      2
     3003  3002  3004  3005    1  180.0000000000    15.1670000000      2
     3003  3002  3004  3034    1  180.0000000000    15.1670000000      2
     4676  4677  4678  4669    1  180.0000000000    15.1670000000      2
     4678  4677  4676  1263    1  180.0000000000    15.1670000000      2
     4676  4677  1265  1266    1  0.0000000000      0.0000000000       1
     4678  4677  1265  1266    1  0.0000000000      0.0000000000       1
     4676  4677  1265  1267    1  180.0000000000    1.0041600000       2
     4678  4677  1265  1267    1  180.0000000000    1.0041600000       2
     4676  4677  1265  1263    1  180.0000000000    1.0041600000       2
     4678  4677  1265  1263    1  180.0000000000    1.0041600000       2
     2978  2979  2981  2982    1  180.0000000000    15.1670000000      2
     2978  2979  2981  2997    1  180.0000000000    15.1670000000      2
     2980  2979  2981  2982    1  180.0000000000    15.1670000000      2
     2980  2979  2981  2997    1  180.0000000000    15.1670000000      2
     1261  1263  1265  1266    1  0.0000000000      0.6508444444       3
     1261  1263  1265  1267    1  0.0000000000      0.6508444444       3
     1264  1263  1265  1266    1  0.0000000000      0.6508444444       3
     4676  1263  1265  1266    1  0.0000000000      0.6508444444       3
     4676  1263  1265  4677    1  0.0000000000      0.6508444444       3
     1261  1263  1265  4677    1  0.0000000000      0.6508444444       3
     3002  3004  3005  3006    1  0.0000000000      0.0000000000       1
     3002  3004  3005  3007    1  180.0000000000    1.0041600000       2
     3002  3004  3005  3029    1  180.0000000000    1.0041600000       2
     3034  3004  3005  3006    1  0.0000000000      0.0000000000       1
     3034  3004  3005  3007    1  180.0000000000    1.0041600000       2
     3034  3004  3005  3029    1  180.0000000000    1.0041600000       2
     3002  3004  3034  3007    1  180.0000000000    15.1670000000      2
     3002  3004  3034  3035    1  180.0000000000    15.1670000000      2
     3005  3004  3034  3007    1  180.0000000000    15.1670000000      2
     3005  3004  3034  3035    1  180.0000000000    15.1670000000      2
     3005  3007  3009  3010    1  0.0000000000      0.5439200000       3
     3005  3007  3009  3011    1  0.0000000000      2.1756800000       3
     3005  3007  3009  3031    1  0.0000000000      2.1756800000       3
     3008  3007  3009  3010    1  0.0000000000      0.5020800000       3
     3008  3007  3009  3011    1  0.0000000000      0.5439200000       3
     3008  3007  3009  3031    1  0.0000000000      0.5439200000       3
     3034  3007  3009  3010    1  0.0000000000      0.6508444444       3
     3034  3007  3009  3011    1  0.0000000000      0.6508444444       3
     3034  3007  3009  3031    1  0.0000000000      0.6508444444       3
     3005  3007  3034  3004    1  180.0000000000    1.0041600000       2
     3005  3007  3034  3035    1  180.0000000000    1.0041600000       2
     3008  3007  3034  3004    1  0.0000000000      0.0000000000       1
     3008  3007  3034  3035    1  0.0000000000      0.0000000000       1
     3009  3007  3034  3004    1  180.0000000000    1.0041600000       2
     3009  3007  3034  3035    1  180.0000000000    1.0041600000       2
     3020  3021  3022  3013    1  180.0000000000    15.1670000000      2
     3956  3021  3020  3954    1  180.0000000000    15.1670000000      2
     3022  3021  3956  3954    1  180.0000000000    1.0041600000       2
     3020  3021  3956  3954    1  180.0000000000    1.0041600000       2
     3022  3021  3956  3957    1  0.0000000000      0.0000000000       1
     3020  3021  3956  3957    1  0.0000000000      0.0000000000       1
     3022  3021  3956  3958    1  180.0000000000    1.0041600000       2
     3020  3021  3956  3958    1  180.0000000000    1.0041600000       2
     3022  3021  3020  3954    1  180.0000000000    15.1670000000      2
     4680  4679  4678  4677    1  0.0000000000      0.0000000000       2
     4681  4679  4678  4677    1  0.0000000000      0.0000000000       2
     4682  4679  4678  4677    1  0.0000000000      0.0000000000       2
     1254  1256  1257  1258    1  0.0000000000      0.0000000000       1
     1254  1256  1257  1259    1  180.0000000000    1.0041600000       2
     1254  1256  1257  1267    1  180.0000000000    1.0041600000       2
     1272  1256  1257  1258    1  0.0000000000      0.0000000000       1
     1272  1256  1257  1259    1  180.0000000000    1.0041600000       2
     1272  1256  1257  1267    1  180.0000000000    1.0041600000       2
     1254  1256  1272  1259    1  180.0000000000    15.1670000000      2
     1254  1256  1272  1273    1  180.0000000000    15.1670000000      2
     1257  1256  1272  1259    1  180.0000000000    15.1670000000      2
     1257  1256  1272  1273    1  180.0000000000    15.1670000000      2
     3004  3005  3007  3008    1  0.0000000000      0.6508444444       3
     3004  3005  3007  3009    1  0.0000000000      0.6508444444       3
     3004  3005  3007  3034    1  0.0000000000      0.6508444444       3
     3006  3005  3007  3008    1  0.0000000000      0.6508444444       3
     3006  3005  3007  3009    1  0.0000000000      0.6508444444       3
     3006  3005  3007  3034    1  0.0000000000      0.6508444444       3
     3029  3005  3007  3008    1  0.0000000000      0.6508444444       3
     3029  3005  3007  3009    1  0.0000000000      0.6508444444       3
     3029  3005  3007  3034    1  0.0000000000      0.6508444444       3
     3004  3005  3029  3027    1  0.0000000000      0.6508444444       3
     3004  3005  3029  3030    1  0.0000000000      0.6508444444       3
     3004  3005  3029  3031    1  0.0000000000      0.6508444444       3
     3006  3005  3029  3027    1  0.0000000000      0.5439200000       3
     3006  3005  3029  3030    1  0.0000000000      0.5020800000       3
     3006  3005  3029  3031    1  0.0000000000      0.5439200000       3
     3007  3005  3029  3027    1  0.0000000000      2.1756800000       3
     3007  3005  3029  3030    1  0.0000000000      0.5439200000       3
     3007  3005  3029  3031    1  0.0000000000      2.1756800000       3
     1267  1265  1263  1264    1  0.0000000000      0.6508444444       3
     1267  1265  1263  4676    1  0.0000000000      0.6508444444       3
     4677  1265  1263  1264    1  0.0000000000      0.6508444444       3
     1256  1257  1259  1260    1  0.0000000000      0.6508444444       3
     1256  1257  1259  1261    1  0.0000000000      0.6508444444       3
     1256  1257  1259  1272    1  0.0000000000      0.6508444444       3
     1258  1257  1259  1260    1  0.0000000000      0.6508444444       3
     1258  1257  1259  1261    1  0.0000000000      0.6508444444       3
     1258  1257  1259  1272    1  0.0000000000      0.6508444444       3
     1267  1257  1259  1260    1  0.0000000000      0.6508444444       3
     1267  1257  1259  1261    1  0.0000000000      0.6508444444       3
     1267  1257  1259  1272    1  0.0000000000      0.6508444444       3
     1256  1257  1267  1268    1  0.0000000000      0.6508444444       3
     1256  1257  1267  1269    1  0.0000000000      0.6508444444       3
     1258  1257  1267  1268    1  0.0000000000      0.5020800000       3
     1258  1257  1267  1269    1  0.0000000000      0.5439200000       3
     1259  1257  1267  1268    1  0.0000000000      0.5439200000       3
     1259  1257  1267  1269    1  0.0000000000      2.1756800000       3
     1256  1272  1273  1252    1  180.0000000000    15.1670000000      2
     1256  1272  1273  1274    1  180.0000000000    15.1670000000      2
     1259  1272  1273  1252    1  180.0000000000    15.1670000000      2
     1259  1272  1273  1274    1  180.0000000000    15.1670000000      2
     1696  1698  1700  1701    1  0.0000000000      0.5439200000       3
     1696  1698  1700  1702    1  0.0000000000      0.6508444444       3
     1696  1698  1700  1716    1  0.0000000000      2.1756800000       3
     1699  1698  1700  1701    1  0.0000000000      0.5020800000       3
     1699  1698  1700  1702    1  0.0000000000      0.6508444444       3
     1699  1698  1700  1716    1  0.0000000000      0.5439200000       3
     1720  1698  1700  1701    1  0.0000000000      0.5439200000       3
     1720  1698  1700  1702    1  0.0000000000      0.6508444444       3
     1720  1698  1700  1716    1  0.0000000000      2.1756800000       3
     1696  1698  1720  1718    1  0.0000000000      0.6508444444       3
     1696  1698  1720  1721    1  0.0000000000      0.6508444444       3
     1696  1698  1720  1722    1  0.0000000000      0.6508444444       3
     1699  1698  1720  1718    1  0.0000000000      0.5439200000       3
     1699  1698  1720  1721    1  0.0000000000      0.5020800000       3
     1699  1698  1720  1722    1  0.0000000000      0.5020800000       3
     1700  1698  1720  1718    1  0.0000000000      0.6508444444       3
     1700  1698  1720  1721    1  0.0000000000      0.6508444444       3
     1700  1698  1720  1722    1  0.0000000000      0.6508444444       3
     1698  1700  1702  1703    1  180.0000000000    1.0041600000       2
     1698  1700  1702  1711    1  180.0000000000    1.0041600000       2
     1701  1700  1702  1703    1  0.0000000000      0.0000000000       1
     1701  1700  1702  1711    1  0.0000000000      0.0000000000       1
     1716  1700  1702  1703    1  180.0000000000    1.0041600000       2
     1716  1700  1702  1711    1  180.0000000000    1.0041600000       2
     1698  1700  1716  1703    1  0.0000000000      0.6508444444       3
     1698  1700  1716  1717    1  0.0000000000      0.6508444444       3
     1698  1700  1716  1718    1  0.0000000000      0.6508444444       3
     1701  1700  1716  1703    1  0.0000000000      0.6508444444       3
     1701  1700  1716  1717    1  0.0000000000      0.6508444444       3
     1701  1700  1716  1718    1  0.0000000000      0.6508444444       3
     1702  1700  1716  1703    1  0.0000000000      0.6508444444       3
     1702  1700  1716  1717    1  0.0000000000      0.6508444444       3
     1702  1700  1716  1718    1  0.0000000000      0.6508444444       3
     1700  1702  1703  1704    1  180.0000000000    15.1670000000      2
     1700  1702  1703  1716    1  180.0000000000    15.1670000000      2
     1711  1702  1703  1704    1  180.0000000000    15.1670000000      2
     1711  1702  1703  1716    1  180.0000000000    15.1670000000      2
     1700  1702  1711  1712    1  180.0000000000    15.1670000000      2
     1703  1702  1711  1710    1  180.0000000000    15.1670000000      2
     1703  1702  1711  1712    1  180.0000000000    15.1670000000      2
     1702  1703  1704  1705    1  180.0000000000    15.1670000000      2
     1702  1703  1704  1709    1  180.0000000000    15.1670000000      2
     1716  1703  1704  1705    1  180.0000000000    15.1670000000      2
     1702  1703  1716  1700    1  180.0000000000    1.0041600000       2
     1702  1703  1716  1717    1  0.0000000000      0.0000000000       1
     1702  1703  1716  1718    1  180.0000000000    1.0041600000       2
     1704  1703  1716  1700    1  180.0000000000    1.0041600000       2
     1704  1703  1716  1717    1  0.0000000000      0.0000000000       1
     1704  1703  1716  1718    1  180.0000000000    1.0041600000       2
     1709  1704  1703  1716    1  180.0000000000    15.1670000000      2
     1703  1704  1705  1706    1  0.0000000000      0.0000000000       2
     1703  1704  1705  1707    1  0.0000000000      0.0000000000       2
     1703  1704  1705  1708    1  0.0000000000      0.0000000000       2
     1703  1704  1709  1710    1  180.0000000000    15.1670000000      2
     1705  1704  1709  1710    1  180.0000000000    15.1670000000      2
     1703  1704  1709  5196    1  180.0000000000    15.1670000000      2
     1705  1704  1709  5196    1  180.0000000000    15.1670000000      2
     1706  1705  1704  1709    1  0.0000000000      0.0000000000       2
     1707  1705  1704  1709    1  0.0000000000      0.0000000000       2
     1708  1705  1704  1709    1  0.0000000000      0.0000000000       2
     1704  1709  1710  1711    1  180.0000000000    15.1670000000      2
     1704  1709  1710  5198    1  180.0000000000    15.1670000000      2
     1704  1709  5196  5197    1  0.0000000000      0.0000000000       1
     1710  1709  5196  5197    1  0.0000000000      0.0000000000       1
     1704  1709  5196  5198    1  180.0000000000    1.0041600000       2
     1710  1709  5196  5198    1  180.0000000000    1.0041600000       2
     1704  1709  5196  5194    1  180.0000000000    1.0041600000       2
     1710  1709  5196  5194    1  180.0000000000    1.0041600000       2
     1709  1710  1711  1702    1  180.0000000000    15.1670000000      2
     5198  1710  1709  5196    1  180.0000000000    15.1670000000      2
     1711  1710  5198  5199    1  0.0000000000      0.0000000000       1
     1709  1710  5198  5199    1  0.0000000000      0.0000000000       1
     1711  1710  5198  5200    1  180.0000000000    1.0041600000       2
     1709  1710  5198  5200    1  180.0000000000    1.0041600000       2
     1711  1710  5198  5196    1  180.0000000000    1.0041600000       2
     1709  1710  5198  5196    1  180.0000000000    1.0041600000       2
     1711  1710  1709  5196    1  180.0000000000    15.1670000000      2
     1712  1711  1710  1709    1  180.0000000000    15.1670000000      2
     1702  1711  1712  1713    1  0.0000000000      0.0000000000       2
     1702  1711  1712  1714    1  0.0000000000      0.0000000000       2
     1702  1711  1712  1715    1  0.0000000000      0.0000000000       2
     1710  1711  1702  1700    1  180.0000000000    15.1670000000      2
     1712  1711  1710  5198    1  180.0000000000    15.1670000000      2
     1702  1711  1710  5198    1  180.0000000000    15.1670000000      2
     5200  5198  5196  5197    1  0.0000000000      0.6508444444       3
     1710  5198  5196  5197    1  0.0000000000      0.6508444444       3
     1710  5198  5196  1709    1  0.0000000000      0.6508444444       3
     5200  5198  5196  1709    1  0.0000000000      0.6508444444       3
     5194  5202  5200  5198    1  0.0000000000      0.6508444444       3
     5200  5202  5194  5196    1  0.0000000000      0.6508444444       3
     5194  5196  5198  5199    1  0.0000000000      0.6508444444       3
     5194  5196  5198  5200    1  0.0000000000      0.6508444444       3
     5197  5196  5198  5199    1  0.0000000000      0.6508444444       3
     5194  5196  5198  1710    1  0.0000000000      0.6508444444       3
     1709  5196  5198  5199    1  0.0000000000      0.6508444444       3
     1693  1694  1696  1697    1  0.0000000000      0.6508444444       3
     1693  1694  1696  1698    1  0.0000000000      0.6508444444       3
     1693  1694  1696  1723    1  0.0000000000      0.6508444444       3
     1695  1694  1696  1697    1  0.0000000000      0.6508444444       3
     1695  1694  1696  1698    1  0.0000000000      0.6508444444       3
     1695  1694  1696  1723    1  0.0000000000      0.6508444444       3
     1718  1694  1696  1697    1  0.0000000000      0.6508444444       3
     1718  1694  1696  1698    1  0.0000000000      0.6508444444       3
     1718  1694  1696  1723    1  0.0000000000      0.6508444444       3
     1693  1694  1718  1716    1  0.0000000000      0.6508444444       3
     1693  1694  1718  1719    1  0.0000000000      0.6508444444       3
     1693  1694  1718  1720    1  0.0000000000      0.6508444444       3
     1695  1694  1718  1716    1  0.0000000000      0.5439200000       3
     1695  1694  1718  1719    1  0.0000000000      0.5020800000       3
     1695  1694  1718  1720    1  0.0000000000      0.5439200000       3
     1696  1694  1718  1716    1  0.0000000000      2.1756800000       3
     1696  1694  1718  1719    1  0.0000000000      0.5439200000       3
     1696  1694  1718  1720    1  0.0000000000      2.1756800000       3
     5014  5015  5016  5017    1  180.0000000000    15.1670000000      2
     5014  5015  5016  5021    1  180.0000000000    15.1670000000      2
     5028  5015  5016  5017    1  180.0000000000    15.1670000000      2
     5014  5015  5028  5012    1  180.0000000000    1.0041600000       2
     5014  5015  5028  5029    1  0.0000000000      0.0000000000       1
     5014  5015  5028  5030    1  180.0000000000    1.0041600000       2
     5016  5015  5028  5012    1  180.0000000000    1.0041600000       2
     5016  5015  5028  5029    1  0.0000000000      0.0000000000       1
     5016  5015  5028  5030    1  180.0000000000    1.0041600000       2
     5003  5005  5006  5007    1  0.0000000000      0.0000000000       1
     5003  5005  5006  5008    1  180.0000000000    1.0041600000       2
     5003  5005  5006  5030    1  180.0000000000    1.0041600000       2
     5035  5005  5006  5007    1  0.0000000000      0.0000000000       1
     5035  5005  5006  5008    1  180.0000000000    1.0041600000       2
     5035  5005  5006  5030    1  180.0000000000    1.0041600000       2
     5003  5005  5035  5008    1  180.0000000000    15.1670000000      2
     5003  5005  5035  5036    1  180.0000000000    15.1670000000      2
     5006  5005  5035  5008    1  180.0000000000    15.1670000000      2
     5006  5005  5035  5036    1  180.0000000000    15.1670000000      2
     5190  5192  5194  5195    1  0.0000000000      0.5439200000       3
     5190  5192  5194  5202    1  0.0000000000      2.1756800000       3
     5193  5192  5194  5195    1  0.0000000000      0.5020800000       3
     5193  5192  5194  5202    1  0.0000000000      0.5439200000       3
     5205  5192  5194  5195    1  0.0000000000      0.6508444444       3
     5205  5192  5194  5202    1  0.0000000000      0.6508444444       3
     5190  5192  5205  5189    1  180.0000000000    1.0041600000       2
     5190  5192  5205  5206    1  180.0000000000    1.0041600000       2
     5193  5192  5205  5189    1  0.0000000000      0.0000000000       1
     5193  5192  5205  5206    1  0.0000000000      0.0000000000       1
     5194  5192  5205  5189    1  180.0000000000    1.0041600000       2
     5194  5192  5205  5206    1  180.0000000000    1.0041600000       2
     5005  5006  5008  5009    1  0.0000000000      0.6508444444       3
     5005  5006  5008  5010    1  0.0000000000      0.6508444444       3
     5005  5006  5008  5035    1  0.0000000000      0.6508444444       3
     5007  5006  5008  5009    1  0.0000000000      0.6508444444       3
     5007  5006  5008  5010    1  0.0000000000      0.6508444444       3
     5007  5006  5008  5035    1  0.0000000000      0.6508444444       3
     5030  5006  5008  5009    1  0.0000000000      0.6508444444       3
     5030  5006  5008  5010    1  0.0000000000      0.6508444444       3
     5030  5006  5008  5035    1  0.0000000000      0.6508444444       3
     5005  5006  5030  5028    1  0.0000000000      0.6508444444       3
     5005  5006  5030  5031    1  0.0000000000      0.6508444444       3
     5005  5006  5030  5032    1  0.0000000000      0.6508444444       3
     5007  5006  5030  5028    1  0.0000000000      0.5439200000       3
     5007  5006  5030  5031    1  0.0000000000      0.5020800000       3
     5007  5006  5030  5032    1  0.0000000000      0.5439200000       3
     5008  5006  5030  5028    1  0.0000000000      2.1756800000       3
     5008  5006  5030  5031    1  0.0000000000      0.5439200000       3
     5008  5006  5030  5032    1  0.0000000000      2.1756800000       3
     5192  5194  5196  5197    1  0.0000000000      0.5439200000       3
     5192  5194  5196  5198    1  0.0000000000      2.1756800000       3
     5195  5194  5196  5197    1  0.0000000000      0.5020800000       3
     5195  5194  5196  5198    1  0.0000000000      0.5439200000       3
     5202  5194  5196  5197    1  0.0000000000      0.5439200000       3
     5202  5194  5196  5198    1  0.0000000000      2.1756800000       3
     5192  5194  5202  5200    1  0.0000000000      0.6508444444       3
     5192  5194  5202  5203    1  0.0000000000      0.6508444444       3
     5192  5194  5202  5204    1  0.0000000000      0.6508444444       3
     5195  5194  5202  5200    1  0.0000000000      0.5439200000       3
     5195  5194  5202  5203    1  0.0000000000      0.5020800000       3
     5195  5194  5202  5204    1  0.0000000000      0.5020800000       3
     5196  5194  5202  5203    1  0.0000000000      0.6508444444       3
     5196  5194  5202  5204    1  0.0000000000      0.6508444444       3
     5196  5194  5192  5190    1  0.0000000000      2.1756800000       3
     5196  5194  5192  5193    1  0.0000000000      0.5439200000       3
     5196  5194  5192  5205    1  0.0000000000      0.6508444444       3
     5195  5194  5196  1709    1  0.0000000000      0.6508444444       3
     5202  5194  5196  1709    1  0.0000000000      0.6508444444       3
     5192  5194  5196  1709    1  0.0000000000      0.6508444444       3
     5189  5205  5206  5185    1  180.0000000000    15.1670000000      2
     5189  5205  5206  5207    1  180.0000000000    15.1670000000      2
     5192  5205  5206  5185    1  180.0000000000    15.1670000000      2
     5192  5205  5206  5207    1  180.0000000000    15.1670000000      2
     1700  1716  1718  1694    1  0.0000000000      2.1756800000       3
     1700  1716  1718  1719    1  0.0000000000      0.5439200000       3
     1700  1716  1718  1720    1  0.0000000000      2.1756800000       3
     1703  1716  1718  1694    1  0.0000000000      0.6508444444       3
     1703  1716  1718  1719    1  0.0000000000      0.6508444444       3
     1703  1716  1718  1720    1  0.0000000000      0.6508444444       3
     1717  1716  1718  1694    1  0.0000000000      0.5439200000       3
     1717  1716  1718  1719    1  0.0000000000      0.5020800000       3
     1717  1716  1718  1720    1  0.0000000000      0.5439200000       3
     5006  5030  5032  5010    1  0.0000000000      0.6508444444       3
     5006  5030  5032  5033    1  0.0000000000      0.6508444444       3
     5006  5030  5032  5034    1  0.0000000000      0.6508444444       3
     5028  5030  5032  5010    1  0.0000000000      0.6508444444       3
     5028  5030  5032  5033    1  0.0000000000      0.6508444444       3
     5028  5030  5032  5034    1  0.0000000000      0.6508444444       3
     5031  5030  5032  5010    1  0.0000000000      0.5439200000       3
     5031  5030  5032  5033    1  0.0000000000      0.5020800000       3
     5031  5030  5032  5034    1  0.0000000000      0.5020800000       3
     5012  5028  5030  5006    1  0.0000000000      2.1756800000       3
     5012  5028  5030  5031    1  0.0000000000      0.5439200000       3
     5012  5028  5030  5032    1  0.0000000000      2.1756800000       3
     5015  5028  5030  5006    1  0.0000000000      0.6508444444       3
     5015  5028  5030  5031    1  0.0000000000      0.6508444444       3
     5015  5028  5030  5032    1  0.0000000000      0.6508444444       3
     5029  5028  5030  5006    1  0.0000000000      0.5439200000       3
     5029  5028  5030  5031    1  0.0000000000      0.5020800000       3
     5029  5028  5030  5032    1  0.0000000000      0.5439200000       3
     5190  5200  5202  5194    1  0.0000000000      0.6508444444       3
     5190  5200  5202  5203    1  0.0000000000      0.6508444444       3
     5190  5200  5202  5204    1  0.0000000000      0.6508444444       3
     5198  5200  5202  5203    1  0.0000000000      0.6508444444       3
     5198  5200  5202  5204    1  0.0000000000      0.6508444444       3
     5201  5200  5202  5194    1  0.0000000000      0.5439200000       3
     5201  5200  5202  5203    1  0.0000000000      0.5020800000       3
     5201  5200  5202  5204    1  0.0000000000      0.5020800000       3
     5198  5200  5190  5189    1  0.0000000000      0.6508444444       3
     5198  5200  5190  5191    1  0.0000000000      0.5439200000       3
     5198  5200  5190  5192    1  0.0000000000      2.1756800000       3
     5190  5200  5198  5196    1  0.0000000000      2.1756800000       3
     5201  5200  5198  5196    1  0.0000000000      0.5439200000       3
     5202  5200  5198  5196    1  0.0000000000      2.1756800000       3
     5190  5200  5198  5199    1  0.0000000000      0.5439200000       3
     5201  5200  5198  5199    1  0.0000000000      0.5020800000       3
     5202  5200  5198  5199    1  0.0000000000      0.5439200000       3
     5201  5200  5198  1710    1  0.0000000000      0.6508444444       3
     5202  5200  5198  1710    1  0.0000000000      0.6508444444       3
     5190  5200  5198  1710    1  0.0000000000      0.6508444444       3
     1368  1367  1366  1365    1  0.0000000000      0.0000000000       2
     1369  1367  1366  1365    1  0.0000000000      0.0000000000       2
     1370  1367  1366  1365    1  0.0000000000      0.0000000000       2
     5012  5014  5015  5016    1  180.0000000000    15.1670000000      2
     5012  5014  5015  5028    1  180.0000000000    15.1670000000      2
     5023  5014  5015  5016    1  180.0000000000    15.1670000000      2
     5023  5014  5015  5028    1  180.0000000000    15.1670000000      2
     5012  5014  5023  5024    1  180.0000000000    15.1670000000      2
     5015  5014  5023  5022    1  180.0000000000    15.1670000000      2
     5015  5014  5023  5024    1  180.0000000000    15.1670000000      2
     1694  1718  1720  1698    1  0.0000000000      0.6508444444       3
     1694  1718  1720  1721    1  0.0000000000      0.6508444444       3
     1694  1718  1720  1722    1  0.0000000000      0.6508444444       3
     1716  1718  1720  1698    1  0.0000000000      0.6508444444       3
     1716  1718  1720  1721    1  0.0000000000      0.6508444444       3
     1716  1718  1720  1722    1  0.0000000000      0.6508444444       3
     1719  1718  1720  1698    1  0.0000000000      0.5439200000       3
     1719  1718  1720  1721    1  0.0000000000      0.5020800000       3
     1719  1718  1720  1722    1  0.0000000000      0.5020800000       3
     1694  1696  1698  1699    1  0.0000000000      0.5439200000       3
     1694  1696  1698  1700    1  0.0000000000      2.1756800000       3
     1694  1696  1698  1720    1  0.0000000000      2.1756800000       3
     1697  1696  1698  1699    1  0.0000000000      0.5020800000       3
     1697  1696  1698  1700    1  0.0000000000      0.5439200000       3
     1697  1696  1698  1720    1  0.0000000000      0.5439200000       3
     1723  1696  1698  1699    1  0.0000000000      0.6508444444       3
     1723  1696  1698  1700    1  0.0000000000      0.6508444444       3
     1723  1696  1698  1720    1  0.0000000000      0.6508444444       3
     1694  1696  1723  1693    1  180.0000000000    1.0041600000       2
     1694  1696  1723  1724    1  180.0000000000    1.0041600000       2
     1697  1696  1723  1693    1  0.0000000000      0.0000000000       1
     1697  1696  1723  1724    1  0.0000000000      0.0000000000       1
     1698  1696  1723  1693    1  180.0000000000    1.0041600000       2
     1698  1696  1723  1724    1  180.0000000000    1.0041600000       2
     5010  5012  5014  5015    1  180.0000000000    1.0041600000       2
     5010  5012  5014  5023    1  180.0000000000    1.0041600000       2
     5013  5012  5014  5015    1  0.0000000000      0.0000000000       1
     5013  5012  5014  5023    1  0.0000000000      0.0000000000       1
     5028  5012  5014  5015    1  180.0000000000    1.0041600000       2
     5028  5012  5014  5023    1  180.0000000000    1.0041600000       2
     5010  5012  5028  5015    1  0.0000000000      0.6508444444       3
     5010  5012  5028  5029    1  0.0000000000      0.6508444444       3
     5010  5012  5028  5030    1  0.0000000000      0.6508444444       3
     5013  5012  5028  5015    1  0.0000000000      0.6508444444       3
     5013  5012  5028  5029    1  0.0000000000      0.6508444444       3
     5013  5012  5028  5030    1  0.0000000000      0.6508444444       3
     5014  5012  5028  5015    1  0.0000000000      0.6508444444       3
     5014  5012  5028  5029    1  0.0000000000      0.6508444444       3
     5014  5012  5028  5030    1  0.0000000000      0.6508444444       3
     5189  5190  5192  5193    1  0.0000000000      0.6508444444       3
     5189  5190  5192  5194    1  0.0000000000      0.6508444444       3
     5189  5190  5192  5205    1  0.0000000000      0.6508444444       3
     5191  5190  5192  5193    1  0.0000000000      0.6508444444       3
     5191  5190  5192  5194    1  0.0000000000      0.6508444444       3
     5191  5190  5192  5205    1  0.0000000000      0.6508444444       3
     5200  5190  5192  5193    1  0.0000000000      0.6508444444       3
     5200  5190  5192  5194    1  0.0000000000      0.6508444444       3
     5200  5190  5192  5205    1  0.0000000000      0.6508444444       3
     5189  5190  5200  5201    1  0.0000000000      0.6508444444       3
     5189  5190  5200  5202    1  0.0000000000      0.6508444444       3
     5191  5190  5200  5201    1  0.0000000000      0.5020800000       3
     5191  5190  5200  5202    1  0.0000000000      0.5439200000       3
     5192  5190  5200  5201    1  0.0000000000      0.5439200000       3
     5192  5190  5200  5202    1  0.0000000000      2.1756800000       3
     5005  5035  5036  5001    1  180.0000000000    15.1670000000      2
     5005  5035  5036  5037    1  180.0000000000    15.1670000000      2
     5008  5035  5036  5001    1  180.0000000000    15.1670000000      2
     5008  5035  5036  5037    1  180.0000000000    15.1670000000      2
     1713  1712  1711  1710    1  0.0000000000      0.0000000000       2
     1714  1712  1711  1710    1  0.0000000000      0.0000000000       2
     1715  1712  1711  1710    1  0.0000000000      0.0000000000       2
     5180  5185  5186  5187    1  180.0000000000    15.1670000000      2
     5180  5185  5186  5208    1  180.0000000000    15.1670000000      2
     5206  5185  5186  5187    1  180.0000000000    15.1670000000      2
     5206  5185  5186  5208    1  180.0000000000    15.1670000000      2
     5180  5185  5206  5205    1  180.0000000000    15.1670000000      2
     5180  5185  5206  5207    1  180.0000000000    15.1670000000      2
     5186  5185  5206  5205    1  180.0000000000    15.1670000000      2
     5186  5185  5206  5207    1  180.0000000000    15.1670000000      2
     5002  5003  5005  5006    1  180.0000000000    15.1670000000      2
     5002  5003  5005  5035    1  180.0000000000    15.1670000000      2
     5004  5003  5005  5006    1  180.0000000000    15.1670000000      2
     5004  5003  5005  5035    1  180.0000000000    15.1670000000      2
     5187  5189  5190  5191    1  0.0000000000      0.0000000000       1
     5187  5189  5190  5192    1  180.0000000000    1.0041600000       2
     5187  5189  5190  5200    1  180.0000000000    1.0041600000       2
     5205  5189  5190  5191    1  0.0000000000      0.0000000000       1
     5205  5189  5190  5192    1  180.0000000000    1.0041600000       2
     5205  5189  5190  5200    1  180.0000000000    1.0041600000       2
     5187  5189  5205  5192    1  180.0000000000    15.1670000000      2
     5187  5189  5205  5206    1  180.0000000000    15.1670000000      2
     5190  5189  5205  5192    1  180.0000000000    15.1670000000      2
     5190  5189  5205  5206    1  180.0000000000    15.1670000000      2
     5018  5017  5016  5021    1  0.0000000000      0.0000000000       2
     5019  5017  5016  5021    1  0.0000000000      0.0000000000       2
     5020  5017  5016  5021    1  0.0000000000      0.0000000000       2
     4979  5001  5002  4973    1  180.0000000000    15.1670000000      2
     4979  5001  5002  5003    1  180.0000000000    15.1670000000      2
     5036  5001  5002  4973    1  180.0000000000    15.1670000000      2
     5036  5001  5002  5003    1  180.0000000000    15.1670000000      2
     4979  5001  5036  5035    1  180.0000000000    15.1670000000      2
     4979  5001  5036  5037    1  180.0000000000    15.1670000000      2
     5002  5001  5036  5035    1  180.0000000000    15.1670000000      2
     5002  5001  5036  5037    1  180.0000000000    15.1670000000      2
     5015  5016  5017  5018    1  0.0000000000      0.0000000000       2
     5015  5016  5017  5019    1  0.0000000000      0.0000000000       2
     5015  5016  5017  5020    1  0.0000000000      0.0000000000       2
     5015  5016  5021  5022    1  180.0000000000    15.1670000000      2
     5017  5016  5021  5022    1  180.0000000000    15.1670000000      2
     5021  5016  5015  5028    1  180.0000000000    15.1670000000      2
     5017  5016  5021  2990    1  180.0000000000    15.1670000000      2
     5015  5016  5021  2990    1  180.0000000000    15.1670000000      2
     5185  5186  5187  5188    1  180.0000000000    15.1670000000      2
     5185  5186  5187  5189    1  180.0000000000    15.1670000000      2
     5208  5186  5187  5188    1  180.0000000000    15.1670000000      2
     5208  5186  5187  5189    1  180.0000000000    15.1670000000      2
     5185  5186  5208  5209    1  180.0000000000    4.1840000000       2
     5185  5186  5208  5243    1  180.0000000000    4.1840000000       2
     5187  5186  5208  5209    1  180.0000000000    4.1840000000       2
     5187  5186  5208  5243    1  180.0000000000    4.1840000000       2
     2357  2358  2360  2361    1  180.0000000000    15.1670000000      2
     2357  2358  2360  2376    1  180.0000000000    15.1670000000      2
     2359  2358  2360  2361    1  180.0000000000    15.1670000000      2
     2359  2358  2360  2376    1  180.0000000000    15.1670000000      2
     5677  5685  5683  5681    1  0.0000000000      0.6508444444       3
     5683  5685  5677  5679    1  0.0000000000      0.6508444444       3
     2360  2361  2363  2364    1  0.0000000000      0.6508444444       3
     2360  2361  2363  2365    1  0.0000000000      0.6508444444       3
     2360  2361  2363  2376    1  0.0000000000      0.6508444444       3
     2362  2361  2363  2364    1  0.0000000000      0.6508444444       3
     2362  2361  2363  2365    1  0.0000000000      0.6508444444       3
     2362  2361  2363  2376    1  0.0000000000      0.6508444444       3
     2371  2361  2363  2364    1  0.0000000000      0.6508444444       3
     2371  2361  2363  2365    1  0.0000000000      0.6508444444       3
     2371  2361  2363  2376    1  0.0000000000      0.6508444444       3
     2360  2361  2371  2372    1  0.0000000000      0.6508444444       3
     2360  2361  2371  2373    1  0.0000000000      0.6508444444       3
     2362  2361  2371  2372    1  0.0000000000      0.5020800000       3
     2362  2361  2371  2373    1  0.0000000000      0.5439200000       3
     2363  2361  2371  2372    1  0.0000000000      0.5439200000       3
     2363  2361  2371  2373    1  0.0000000000      2.1756800000       3
     5673  5675  5677  5678    1  0.0000000000      0.5439200000       3
     5673  5675  5677  5685    1  0.0000000000      2.1756800000       3
     5676  5675  5677  5678    1  0.0000000000      0.5020800000       3
     5676  5675  5677  5685    1  0.0000000000      0.5439200000       3
     5688  5675  5677  5678    1  0.0000000000      0.6508444444       3
     5688  5675  5677  5685    1  0.0000000000      0.6508444444       3
     5673  5675  5688  5672    1  180.0000000000    1.0041600000       2
     5673  5675  5688  5689    1  180.0000000000    1.0041600000       2
     5676  5675  5688  5672    1  0.0000000000      0.0000000000       1
     5676  5675  5688  5689    1  0.0000000000      0.0000000000       1
     5677  5675  5688  5672    1  180.0000000000    1.0041600000       2
     5677  5675  5688  5689    1  180.0000000000    1.0041600000       2
     2036  2038  2039  2040    1  0.0000000000      0.0000000000       1
     2036  2038  2039  2041    1  180.0000000000    1.0041600000       2
     2036  2038  2039  2063    1  180.0000000000    1.0041600000       2
     2068  2038  2039  2040    1  0.0000000000      0.0000000000       1
     2068  2038  2039  2041    1  180.0000000000    1.0041600000       2
     2068  2038  2039  2063    1  180.0000000000    1.0041600000       2
     2036  2038  2068  2041    1  180.0000000000    15.1670000000      2
     2036  2038  2068  2069    1  180.0000000000    15.1670000000      2
     2039  2038  2068  2041    1  180.0000000000    15.1670000000      2
     2039  2038  2068  2069    1  180.0000000000    15.1670000000      2
     2361  2363  2365  2366    1  0.0000000000      0.5439200000       3
     2361  2363  2365  2373    1  0.0000000000      2.1756800000       3
     2364  2363  2365  2366    1  0.0000000000      0.5020800000       3
     2364  2363  2365  2373    1  0.0000000000      0.5439200000       3
     2376  2363  2365  2366    1  0.0000000000      0.6508444444       3
     2376  2363  2365  2373    1  0.0000000000      0.6508444444       3
     2361  2363  2376  2360    1  180.0000000000    1.0041600000       2
     2361  2363  2376  2377    1  180.0000000000    1.0041600000       2
     2364  2363  2376  2360    1  0.0000000000      0.0000000000       1
     2364  2363  2376  2377    1  0.0000000000      0.0000000000       1
     2365  2363  2376  2360    1  180.0000000000    1.0041600000       2
     2365  2363  2376  2377    1  180.0000000000    1.0041600000       2
     2360  2376  2377  2356    1  180.0000000000    15.1670000000      2
     2360  2376  2377  2378    1  180.0000000000    15.1670000000      2
     2363  2376  2377  2356    1  180.0000000000    15.1670000000      2
     2363  2376  2377  2378    1  180.0000000000    15.1670000000      2
     1909  1910  1911  1912    1  180.0000000000    15.1670000000      2
     1909  1910  1911  1916    1  180.0000000000    15.1670000000      2
     1923  1910  1911  1912    1  180.0000000000    15.1670000000      2
     1909  1910  1923  1907    1  180.0000000000    1.0041600000       2
     1909  1910  1923  1924    1  0.0000000000      0.0000000000       1
     1909  1910  1923  1925    1  180.0000000000    1.0041600000       2
     1911  1910  1923  1907    1  180.0000000000    1.0041600000       2
     1911  1910  1923  1924    1  0.0000000000      0.0000000000       1
     1911  1910  1923  1925    1  180.0000000000    1.0041600000       2
     1913  1912  1911  1916    1  0.0000000000      0.0000000000       2
     1914  1912  1911  1916    1  0.0000000000      0.0000000000       2
     1915  1912  1911  1916    1  0.0000000000      0.0000000000       2
     1897  1898  1900  1901    1  180.0000000000    15.1670000000      2
     1897  1898  1900  1930    1  180.0000000000    15.1670000000      2
     1899  1898  1900  1901    1  180.0000000000    15.1670000000      2
     1899  1898  1900  1930    1  180.0000000000    15.1670000000      2
     1901  1903  1905  1906    1  0.0000000000      0.5439200000       3
     1901  1903  1905  1907    1  0.0000000000      2.1756800000       3
     1901  1903  1905  1927    1  0.0000000000      2.1756800000       3
     1904  1903  1905  1906    1  0.0000000000      0.5020800000       3
     1904  1903  1905  1907    1  0.0000000000      0.5439200000       3
     1904  1903  1905  1927    1  0.0000000000      0.5439200000       3
     1930  1903  1905  1906    1  0.0000000000      0.6508444444       3
     1930  1903  1905  1907    1  0.0000000000      0.6508444444       3
     1930  1903  1905  1927    1  0.0000000000      0.6508444444       3
     1901  1903  1930  1900    1  180.0000000000    1.0041600000       2
     1901  1903  1930  1931    1  180.0000000000    1.0041600000       2
     1904  1903  1930  1900    1  0.0000000000      0.0000000000       1
     1904  1903  1930  1931    1  0.0000000000      0.0000000000       1
     1905  1903  1930  1900    1  180.0000000000    1.0041600000       2
     1905  1903  1930  1931    1  180.0000000000    1.0041600000       2
     2038  2039  2041  2042    1  0.0000000000      0.6508444444       3
     2038  2039  2041  2043    1  0.0000000000      0.6508444444       3
     2038  2039  2041  2068    1  0.0000000000      0.6508444444       3
     2040  2039  2041  2042    1  0.0000000000      0.6508444444       3
     2040  2039  2041  2043    1  0.0000000000      0.6508444444       3
     2040  2039  2041  2068    1  0.0000000000      0.6508444444       3
     2063  2039  2041  2042    1  0.0000000000      0.6508444444       3
     2063  2039  2041  2043    1  0.0000000000      0.6508444444       3
     2063  2039  2041  2068    1  0.0000000000      0.6508444444       3
     2038  2039  2063  2061    1  0.0000000000      0.6508444444       3
     2038  2039  2063  2064    1  0.0000000000      0.6508444444       3
     2038  2039  2063  2065    1  0.0000000000      0.6508444444       3
     2040  2039  2063  2061    1  0.0000000000      0.5439200000       3
     2040  2039  2063  2064    1  0.0000000000      0.5020800000       3
     2040  2039  2063  2065    1  0.0000000000      0.5439200000       3
     2041  2039  2063  2061    1  0.0000000000      2.1756800000       3
     2041  2039  2063  2064    1  0.0000000000      0.5439200000       3
     2041  2039  2063  2065    1  0.0000000000      2.1756800000       3
     1868  1873  1874  1875    1  180.0000000000    15.1670000000      2
     1868  1873  1874  1896    1  180.0000000000    15.1670000000      2
     1894  1873  1874  1875    1  180.0000000000    15.1670000000      2
     1894  1873  1874  1896    1  180.0000000000    15.1670000000      2
     1868  1873  1894  1893    1  180.0000000000    15.1670000000      2
     1868  1873  1894  1895    1  180.0000000000    15.1670000000      2
     1874  1873  1894  1893    1  180.0000000000    15.1670000000      2
     1874  1873  1894  1895    1  180.0000000000    15.1670000000      2
     1901  1925  1927  1905    1  0.0000000000      0.6508444444       3
     1901  1925  1927  1928    1  0.0000000000      0.6508444444       3
     1901  1925  1927  1929    1  0.0000000000      0.6508444444       3
     1923  1925  1927  1905    1  0.0000000000      0.6508444444       3
     1923  1925  1927  1928    1  0.0000000000      0.6508444444       3
     1923  1925  1927  1929    1  0.0000000000      0.6508444444       3
     1926  1925  1927  1905    1  0.0000000000      0.5439200000       3
     1926  1925  1927  1928    1  0.0000000000      0.5020800000       3
     1926  1925  1927  1929    1  0.0000000000      0.5020800000       3
     1865  1864  1868  1869    1  0.0000000000      0.5439200000       3
     1865  1864  1868  1873    1  0.0000000000      0.6508444444       3
     1865  1864  1868  1897    1  0.0000000000      0.6508444444       3
     1866  1864  1868  1869    1  0.0000000000      0.5439200000       3
     1866  1864  1868  1873    1  0.0000000000      0.6508444444       3
     1866  1864  1868  1897    1  0.0000000000      0.6508444444       3
     1867  1864  1868  1869    1  0.0000000000      0.5439200000       3
     1867  1864  1868  1873    1  0.0000000000      0.6508444444       3
     1867  1864  1868  1897    1  0.0000000000      0.6508444444       3
     5683  5681  5679  5680    1  0.0000000000      0.6508444444       3
     5683  5681  5679  1916    1  0.0000000000      0.6508444444       3
     1917  5681  5679  5680    1  0.0000000000      0.6508444444       3
     2371  2369  2367  2368    1  0.0000000000      0.6508444444       3
     2371  2369  2367  743     1  0.0000000000      0.6508444444       3
     744   2369  2367  2368    1  0.0000000000      0.6508444444       3
     1875  1877  1878  1879    1  0.0000000000      0.0000000000       1
     1875  1877  1878  1880    1  180.0000000000    1.0041600000       2
     1875  1877  1878  1888    1  180.0000000000    1.0041600000       2
     1893  1877  1878  1879    1  0.0000000000      0.0000000000       1
     1893  1877  1878  1880    1  180.0000000000    1.0041600000       2
     1893  1877  1878  1888    1  180.0000000000    1.0041600000       2
     1875  1877  1893  1880    1  180.0000000000    15.1670000000      2
     1875  1877  1893  1894    1  180.0000000000    15.1670000000      2
     1878  1877  1893  1880    1  180.0000000000    15.1670000000      2
     1878  1877  1893  1894    1  180.0000000000    15.1670000000      2
     1916  1911  1910  1923    1  180.0000000000    15.1670000000      2
     1910  1911  1912  1913    1  0.0000000000      0.0000000000       2
     1910  1911  1912  1914    1  0.0000000000      0.0000000000       2
     1910  1911  1912  1915    1  0.0000000000      0.0000000000       2
     1910  1911  1916  1917    1  180.0000000000    15.1670000000      2
     1912  1911  1916  1917    1  180.0000000000    15.1670000000      2
     1910  1911  1916  5679    1  180.0000000000    15.1670000000      2
     1912  1911  1916  5679    1  180.0000000000    15.1670000000      2
     1874  1875  1877  1878    1  180.0000000000    15.1670000000      2
     1874  1875  1877  1893    1  180.0000000000    15.1670000000      2
     1876  1875  1877  1878    1  180.0000000000    15.1670000000      2
     1876  1875  1877  1893    1  180.0000000000    15.1670000000      2
     1919  1918  1917  1916    1  180.0000000000    15.1670000000      2
     1909  1918  1919  1920    1  0.0000000000      0.0000000000       2
     1909  1918  1919  1921    1  0.0000000000      0.0000000000       2
     1909  1918  1919  1922    1  0.0000000000      0.0000000000       2
     1917  1918  1909  1907    1  180.0000000000    15.1670000000      2
     1919  1918  1917  5681    1  180.0000000000    15.1670000000      2
     1909  1918  1917  5681    1  180.0000000000    15.1670000000      2
     1877  1893  1894  1873    1  180.0000000000    15.1670000000      2
     1877  1893  1894  1895    1  180.0000000000    15.1670000000      2
     1880  1893  1894  1873    1  180.0000000000    15.1670000000      2
     1880  1893  1894  1895    1  180.0000000000    15.1670000000      2
     1903  1905  1907  1908    1  0.0000000000      0.5439200000       3
     1903  1905  1907  1909    1  0.0000000000      0.6508444444       3
     1903  1905  1907  1923    1  0.0000000000      2.1756800000       3
     1906  1905  1907  1908    1  0.0000000000      0.5020800000       3
     1906  1905  1907  1909    1  0.0000000000      0.6508444444       3
     1906  1905  1907  1923    1  0.0000000000      0.5439200000       3
     1927  1905  1907  1908    1  0.0000000000      0.5439200000       3
     1927  1905  1907  1909    1  0.0000000000      0.6508444444       3
     1927  1905  1907  1923    1  0.0000000000      2.1756800000       3
     1903  1905  1927  1925    1  0.0000000000      0.6508444444       3
     1903  1905  1927  1928    1  0.0000000000      0.6508444444       3
     1903  1905  1927  1929    1  0.0000000000      0.6508444444       3
     1906  1905  1927  1925    1  0.0000000000      0.5439200000       3
     1906  1905  1927  1928    1  0.0000000000      0.5020800000       3
     1906  1905  1927  1929    1  0.0000000000      0.5020800000       3
     1907  1905  1927  1925    1  0.0000000000      0.6508444444       3
     1907  1905  1927  1928    1  0.0000000000      0.6508444444       3
     1907  1905  1927  1929    1  0.0000000000      0.6508444444       3
     2361  2371  2369  2367    1  0.0000000000      2.1756800000       3
     2372  2371  2369  2367    1  0.0000000000      0.5439200000       3
     2373  2371  2369  2367    1  0.0000000000      2.1756800000       3
     2361  2371  2369  2370    1  0.0000000000      0.5439200000       3
     2372  2371  2369  2370    1  0.0000000000      0.5020800000       3
     2373  2371  2369  2370    1  0.0000000000      0.5439200000       3
     2361  2371  2373  2365    1  0.0000000000      0.6508444444       3
     2361  2371  2373  2374    1  0.0000000000      0.6508444444       3
     2361  2371  2373  2375    1  0.0000000000      0.6508444444       3
     2369  2371  2373  2374    1  0.0000000000      0.6508444444       3
     2369  2371  2373  2375    1  0.0000000000      0.6508444444       3
     2372  2371  2373  2365    1  0.0000000000      0.5439200000       3
     2372  2371  2373  2374    1  0.0000000000      0.5020800000       3
     2372  2371  2373  2375    1  0.0000000000      0.5020800000       3
     2369  2371  2361  2360    1  0.0000000000      0.6508444444       3
     2369  2371  2361  2362    1  0.0000000000      0.5439200000       3
     2369  2371  2361  2363    1  0.0000000000      2.1756800000       3
     2372  2371  2369  744     1  0.0000000000      0.6508444444       3
     2373  2371  2369  744     1  0.0000000000      0.6508444444       3
     2361  2371  2369  744     1  0.0000000000      0.6508444444       3
     1874  1896  1897  1868    1  180.0000000000    15.1670000000      2
     1874  1896  1897  1898    1  180.0000000000    15.1670000000      2
     1931  1896  1897  1868    1  180.0000000000    15.1670000000      2
     1931  1896  1897  1898    1  180.0000000000    15.1670000000      2
     1874  1896  1931  1930    1  180.0000000000    15.1670000000      2
     1874  1896  1931  1932    1  180.0000000000    15.1670000000      2
     1897  1896  1931  1930    1  180.0000000000    15.1670000000      2
     1897  1896  1931  1932    1  180.0000000000    15.1670000000      2
     1916  1917  1918  1909    1  180.0000000000    15.1670000000      2
     1918  1917  1916  5679    1  180.0000000000    15.1670000000      2
     1918  1917  5681  5682    1  0.0000000000      0.0000000000       1
     1916  1917  5681  5682    1  0.0000000000      0.0000000000       1
     1918  1917  5681  5683    1  180.0000000000    1.0041600000       2
     1916  1917  5681  5683    1  180.0000000000    1.0041600000       2
     1918  1917  5681  5679    1  180.0000000000    1.0041600000       2
     1916  1917  5681  5679    1  180.0000000000    1.0041600000       2
     1900  1901  1903  1904    1  0.0000000000      0.6508444444       3
     1900  1901  1903  1905    1  0.0000000000      0.6508444444       3
     1900  1901  1903  1930    1  0.0000000000      0.6508444444       3
     1902  1901  1903  1904    1  0.0000000000      0.6508444444       3
     1902  1901  1903  1905    1  0.0000000000      0.6508444444       3
     1902  1901  1903  1930    1  0.0000000000      0.6508444444       3
     1925  1901  1903  1904    1  0.0000000000      0.6508444444       3
     1925  1901  1903  1905    1  0.0000000000      0.6508444444       3
     1925  1901  1903  1930    1  0.0000000000      0.6508444444       3
     1900  1901  1925  1923    1  0.0000000000      0.6508444444       3
     1900  1901  1925  1926    1  0.0000000000      0.6508444444       3
     1900  1901  1925  1927    1  0.0000000000      0.6508444444       3
     1902  1901  1925  1923    1  0.0000000000      0.5439200000       3
     1902  1901  1925  1926    1  0.0000000000      0.5020800000       3
     1902  1901  1925  1927    1  0.0000000000      0.5439200000       3
     1903  1901  1925  1923    1  0.0000000000      2.1756800000       3
     1903  1901  1925  1926    1  0.0000000000      0.5439200000       3
     1903  1901  1925  1927    1  0.0000000000      2.1756800000       3
     1868  1897  1898  1899    1  180.0000000000    15.1670000000      2
     1868  1897  1898  1900    1  180.0000000000    15.1670000000      2
     1896  1897  1898  1899    1  180.0000000000    15.1670000000      2
     1896  1897  1898  1900    1  180.0000000000    15.1670000000      2
     1900  1930  1931  1896    1  180.0000000000    15.1670000000      2
     1900  1930  1931  1932    1  180.0000000000    15.1670000000      2
     1903  1930  1931  1896    1  180.0000000000    15.1670000000      2
     1903  1930  1931  1932    1  180.0000000000    15.1670000000      2
     1907  1909  1910  1911    1  180.0000000000    15.1670000000      2
     1907  1909  1910  1923    1  180.0000000000    15.1670000000      2
     1918  1909  1910  1911    1  180.0000000000    15.1670000000      2
     1918  1909  1910  1923    1  180.0000000000    15.1670000000      2
     1907  1909  1918  1919    1  180.0000000000    15.1670000000      2
     1910  1909  1918  1917    1  180.0000000000    15.1670000000      2
     1910  1909  1918  1919    1  180.0000000000    15.1670000000      2
     1920  1919  1918  1917    1  0.0000000000      0.0000000000       2
     1921  1919  1918  1917    1  0.0000000000      0.0000000000       2
     1922  1919  1918  1917    1  0.0000000000      0.0000000000       2
     1898  1900  1901  1902    1  0.0000000000      0.0000000000       1
     1898  1900  1901  1903    1  180.0000000000    1.0041600000       2
     1898  1900  1901  1925    1  180.0000000000    1.0041600000       2
     1930  1900  1901  1902    1  0.0000000000      0.0000000000       1
     1930  1900  1901  1903    1  180.0000000000    1.0041600000       2
     1930  1900  1901  1925    1  180.0000000000    1.0041600000       2
     1898  1900  1930  1903    1  180.0000000000    15.1670000000      2
     1898  1900  1930  1931    1  180.0000000000    15.1670000000      2
     1901  1900  1930  1903    1  180.0000000000    15.1670000000      2
     1901  1900  1930  1931    1  180.0000000000    15.1670000000      2
     1911  1916  1917  1918    1  180.0000000000    15.1670000000      2
     5679  1916  1917  5681    1  180.0000000000    15.1670000000      2
     1917  1916  5679  5680    1  0.0000000000      0.0000000000       1
     1911  1916  5679  5680    1  0.0000000000      0.0000000000       1
     1917  1916  5679  5681    1  180.0000000000    1.0041600000       2
     1911  1916  5679  5681    1  180.0000000000    1.0041600000       2
     1917  1916  5679  5677    1  180.0000000000    1.0041600000       2
     1911  1916  5679  5677    1  180.0000000000    1.0041600000       2
     1911  1916  1917  5681    1  180.0000000000    15.1670000000      2
     1905  1907  1909  1910    1  180.0000000000    1.0041600000       2
     1905  1907  1909  1918    1  180.0000000000    1.0041600000       2
     1908  1907  1909  1910    1  0.0000000000      0.0000000000       1
     1908  1907  1909  1918    1  0.0000000000      0.0000000000       1
     1923  1907  1909  1910    1  180.0000000000    1.0041600000       2
     1923  1907  1909  1918    1  180.0000000000    1.0041600000       2
     1905  1907  1923  1910    1  0.0000000000      0.6508444444       3
     1905  1907  1923  1924    1  0.0000000000      0.6508444444       3
     1905  1907  1923  1925    1  0.0000000000      0.6508444444       3
     1908  1907  1923  1910    1  0.0000000000      0.6508444444       3
     1908  1907  1923  1924    1  0.0000000000      0.6508444444       3
     1908  1907  1923  1925    1  0.0000000000      0.6508444444       3
     1909  1907  1923  1910    1  0.0000000000      0.6508444444       3
     1909  1907  1923  1924    1  0.0000000000      0.6508444444       3
     1909  1907  1923  1925    1  0.0000000000      0.6508444444       3
     5677  5679  5681  5682    1  0.0000000000      0.6508444444       3
     5677  5679  5681  5683    1  0.0000000000      0.6508444444       3
     5680  5679  5681  5682    1  0.0000000000      0.6508444444       3
     1916  5679  5681  5682    1  0.0000000000      0.6508444444       3
     1916  5679  5681  1917    1  0.0000000000      0.6508444444       3
     5677  5679  5681  1917    1  0.0000000000      0.6508444444       3
     1907  1923  1925  1901    1  0.0000000000      2.1756800000       3
     1907  1923  1925  1926    1  0.0000000000      0.5439200000       3
     1907  1923  1925  1927    1  0.0000000000      2.1756800000       3
     1910  1923  1925  1901    1  0.0000000000      0.6508444444       3
     1910  1923  1925  1926    1  0.0000000000      0.6508444444       3
     1910  1923  1925  1927    1  0.0000000000      0.6508444444       3
     1924  1923  1925  1901    1  0.0000000000      0.5439200000       3
     1924  1923  1925  1926    1  0.0000000000      0.5020800000       3
     1924  1923  1925  1927    1  0.0000000000      0.5439200000       3
     1873  1874  1875  1876    1  180.0000000000    15.1670000000      2
     1873  1874  1875  1877    1  180.0000000000    15.1670000000      2
     1896  1874  1875  1876    1  180.0000000000    15.1670000000      2
     1896  1874  1875  1877    1  180.0000000000    15.1670000000      2
     1873  1874  1896  1897    1  180.0000000000    4.1840000000       2
     1873  1874  1896  1931    1  180.0000000000    4.1840000000       2
     1875  1874  1896  1897    1  180.0000000000    4.1840000000       2
     1875  1874  1896  1931    1  180.0000000000    4.1840000000       2
     1864  1868  1869  1870    1  0.0000000000      0.5439200000       3
     1864  1868  1869  1871    1  0.0000000000      0.5439200000       3
     1864  1868  1869  1872    1  0.0000000000      0.5439200000       3
     1873  1868  1869  1870    1  0.0000000000      0.6508444444       3
     1873  1868  1869  1871    1  0.0000000000      0.6508444444       3
     1873  1868  1869  1872    1  0.0000000000      0.6508444444       3
     1897  1868  1869  1870    1  0.0000000000      0.6508444444       3
     1897  1868  1869  1871    1  0.0000000000      0.6508444444       3
     1897  1868  1869  1872    1  0.0000000000      0.6508444444       3
     1864  1868  1873  1874    1  0.0000000000      0.0000000000       2
     1864  1868  1873  1894    1  180.0000000000    1.0041600000       2
     1869  1868  1873  1874    1  0.0000000000      0.0000000000       2
     1869  1868  1873  1894    1  180.0000000000    1.0041600000       2
     1897  1868  1873  1874    1  0.0000000000      0.0000000000       2
     1897  1868  1873  1894    1  180.0000000000    0.0000000000       2
     1864  1868  1897  1896    1  0.0000000000      0.0000000000       2
     1864  1868  1897  1898    1  180.0000000000    1.0041600000       2
     1869  1868  1897  1896    1  0.0000000000      0.0000000000       2
     1869  1868  1897  1898    1  180.0000000000    1.0041600000       2
     1873  1868  1897  1896    1  0.0000000000      0.0000000000       2
     1873  1868  1897  1898    1  180.0000000000    0.0000000000       2
     2358  2360  2361  2362    1  0.0000000000      0.0000000000       1
     2358  2360  2361  2363    1  180.0000000000    1.0041600000       2
     2358  2360  2361  2371    1  180.0000000000    1.0041600000       2
     2376  2360  2361  2362    1  0.0000000000      0.0000000000       1
     2376  2360  2361  2363    1  180.0000000000    1.0041600000       2
     2376  2360  2361  2371    1  180.0000000000    1.0041600000       2
     2358  2360  2376  2363    1  180.0000000000    15.1670000000      2
     2358  2360  2376  2377    1  180.0000000000    15.1670000000      2
     2361  2360  2376  2363    1  180.0000000000    15.1670000000      2
     2361  2360  2376  2377    1  180.0000000000    15.1670000000      2
     1661  1666  1667  1668    1  180.0000000000    15.1670000000      2
     1661  1666  1667  1689    1  180.0000000000    15.1670000000      2
     1687  1666  1667  1668    1  180.0000000000    15.1670000000      2
     1687  1666  1667  1689    1  180.0000000000    15.1670000000      2
     1661  1666  1687  1686    1  180.0000000000    15.1670000000      2
     1661  1666  1687  1688    1  180.0000000000    15.1670000000      2
     1667  1666  1687  1686    1  180.0000000000    15.1670000000      2
     1667  1666  1687  1688    1  180.0000000000    15.1670000000      2
     1666  1667  1668  1669    1  180.0000000000    15.1670000000      2
     1666  1667  1668  1670    1  180.0000000000    15.1670000000      2
     1689  1667  1668  1669    1  180.0000000000    15.1670000000      2
     1689  1667  1668  1670    1  180.0000000000    15.1670000000      2
     1666  1667  1689  1690    1  180.0000000000    4.1840000000       2
     1666  1667  1689  1724    1  180.0000000000    4.1840000000       2
     1668  1667  1689  1690    1  180.0000000000    4.1840000000       2
     1668  1667  1689  1724    1  180.0000000000    4.1840000000       2
     1667  1668  1670  1671    1  180.0000000000    15.1670000000      2
     1667  1668  1670  1686    1  180.0000000000    15.1670000000      2
     1669  1668  1670  1671    1  180.0000000000    15.1670000000      2
     1669  1668  1670  1686    1  180.0000000000    15.1670000000      2
     1668  1670  1671  1672    1  0.0000000000      0.0000000000       1
     1668  1670  1671  1673    1  180.0000000000    1.0041600000       2
     1668  1670  1671  1681    1  180.0000000000    1.0041600000       2
     1686  1670  1671  1672    1  0.0000000000      0.0000000000       1
     1686  1670  1671  1673    1  180.0000000000    1.0041600000       2
     1686  1670  1671  1681    1  180.0000000000    1.0041600000       2
     1668  1670  1686  1673    1  180.0000000000    15.1670000000      2
     1668  1670  1686  1687    1  180.0000000000    15.1670000000      2
     1671  1670  1686  1673    1  180.0000000000    15.1670000000      2
     1671  1670  1686  1687    1  180.0000000000    15.1670000000      2
     1670  1671  1673  1674    1  0.0000000000      0.6508444444       3
     1670  1671  1673  1675    1  0.0000000000      0.6508444444       3
     1670  1671  1673  1686    1  0.0000000000      0.6508444444       3
     1672  1671  1673  1674    1  0.0000000000      0.6508444444       3
     1672  1671  1673  1675    1  0.0000000000      0.6508444444       3
     1672  1671  1673  1686    1  0.0000000000      0.6508444444       3
     1681  1671  1673  1674    1  0.0000000000      0.6508444444       3
     1681  1671  1673  1675    1  0.0000000000      0.6508444444       3
     1681  1671  1673  1686    1  0.0000000000      0.6508444444       3
     1670  1671  1681  1682    1  0.0000000000      0.6508444444       3
     1670  1671  1681  1683    1  0.0000000000      0.6508444444       3
     1672  1671  1681  1682    1  0.0000000000      0.5020800000       3
     1672  1671  1681  1683    1  0.0000000000      0.5439200000       3
     1673  1671  1681  1682    1  0.0000000000      0.5439200000       3
     1673  1671  1681  1683    1  0.0000000000      2.1756800000       3
     1671  1673  1675  1676    1  0.0000000000      0.5439200000       3
     1671  1673  1675  1683    1  0.0000000000      2.1756800000       3
     1674  1673  1675  1676    1  0.0000000000      0.5020800000       3
     1674  1673  1675  1683    1  0.0000000000      0.5439200000       3
     1686  1673  1675  1676    1  0.0000000000      0.6508444444       3
     1686  1673  1675  1683    1  0.0000000000      0.6508444444       3
     1671  1673  1686  1670    1  180.0000000000    1.0041600000       2
     1671  1673  1686  1687    1  180.0000000000    1.0041600000       2
     1674  1673  1686  1670    1  0.0000000000      0.0000000000       1
     1674  1673  1686  1687    1  0.0000000000      0.0000000000       1
     1675  1673  1686  1670    1  180.0000000000    1.0041600000       2
     1675  1673  1686  1687    1  180.0000000000    1.0041600000       2
     1677  1675  1673  1671    1  0.0000000000      2.1756800000       3
     1677  1675  1673  1674    1  0.0000000000      0.5439200000       3
     1677  1675  1673  1686    1  0.0000000000      0.6508444444       3
     1673  1675  1677  1678    1  0.0000000000      0.5439200000       3
     1673  1675  1677  1679    1  0.0000000000      2.1756800000       3
     1676  1675  1677  1678    1  0.0000000000      0.5020800000       3
     1676  1675  1677  1679    1  0.0000000000      0.5439200000       3
     1683  1675  1677  1678    1  0.0000000000      0.5439200000       3
     1683  1675  1677  1679    1  0.0000000000      2.1756800000       3
     1673  1675  1683  1681    1  0.0000000000      0.6508444444       3
     1673  1675  1683  1684    1  0.0000000000      0.6508444444       3
     1673  1675  1683  1685    1  0.0000000000      0.6508444444       3
     1676  1675  1683  1681    1  0.0000000000      0.5439200000       3
     1676  1675  1683  1684    1  0.0000000000      0.5020800000       3
     1676  1675  1683  1685    1  0.0000000000      0.5020800000       3
     1677  1675  1683  1684    1  0.0000000000      0.6508444444       3
     1677  1675  1683  1685    1  0.0000000000      0.6508444444       3
     1673  1675  1677  6471    1  0.0000000000      0.6508444444       3
     1676  1675  1677  6471    1  0.0000000000      0.6508444444       3
     1683  1675  1677  6471    1  0.0000000000      0.6508444444       3
     1670  1686  1687  1666    1  180.0000000000    15.1670000000      2
     1670  1686  1687  1688    1  180.0000000000    15.1670000000      2
     1673  1686  1687  1666    1  180.0000000000    15.1670000000      2
     1673  1686  1687  1688    1  180.0000000000    15.1670000000      2
     5399  5401  5403  5404    1  0.0000000000      0.5439200000       3
     5399  5401  5403  5405    1  0.0000000000      2.1756800000       3
     5402  5401  5403  5404    1  0.0000000000      0.5020800000       3
     5402  5401  5403  5405    1  0.0000000000      0.5439200000       3
     5409  5401  5403  5404    1  0.0000000000      0.5439200000       3
     5409  5401  5403  5405    1  0.0000000000      2.1756800000       3
     5399  5401  5409  5407    1  0.0000000000      0.6508444444       3
     5399  5401  5409  5410    1  0.0000000000      0.6508444444       3
     5399  5401  5409  5411    1  0.0000000000      0.6508444444       3
     5402  5401  5409  5407    1  0.0000000000      0.5439200000       3
     5402  5401  5409  5410    1  0.0000000000      0.5020800000       3
     5402  5401  5409  5411    1  0.0000000000      0.5020800000       3
     5403  5401  5409  5410    1  0.0000000000      0.6508444444       3
     5403  5401  5409  5411    1  0.0000000000      0.6508444444       3
     5403  5401  5399  5397    1  0.0000000000      2.1756800000       3
     5403  5401  5399  5400    1  0.0000000000      0.5439200000       3
     5403  5401  5399  5412    1  0.0000000000      0.6508444444       3
     5402  5401  5403  4470    1  0.0000000000      0.6508444444       3
     5409  5401  5403  4470    1  0.0000000000      0.6508444444       3
     5399  5401  5403  4470    1  0.0000000000      0.6508444444       3
     1667  1689  1690  1661    1  180.0000000000    15.1670000000      2
     1667  1689  1690  1691    1  180.0000000000    15.1670000000      2
     1724  1689  1690  1661    1  180.0000000000    15.1670000000      2
     1724  1689  1690  1691    1  180.0000000000    15.1670000000      2
     1667  1689  1724  1723    1  180.0000000000    15.1670000000      2
     1667  1689  1724  1725    1  180.0000000000    15.1670000000      2
     1690  1689  1724  1723    1  180.0000000000    15.1670000000      2
     1690  1689  1724  1725    1  180.0000000000    15.1670000000      2
     1657  1661  1662  1663    1  0.0000000000      0.5439200000       3
     1657  1661  1662  1664    1  0.0000000000      0.5439200000       3
     1657  1661  1662  1665    1  0.0000000000      0.5439200000       3
     1666  1661  1662  1663    1  0.0000000000      0.6508444444       3
     1666  1661  1662  1664    1  0.0000000000      0.6508444444       3
     1666  1661  1662  1665    1  0.0000000000      0.6508444444       3
     1690  1661  1662  1663    1  0.0000000000      0.6508444444       3
     1690  1661  1662  1664    1  0.0000000000      0.6508444444       3
     1690  1661  1662  1665    1  0.0000000000      0.6508444444       3
     1657  1661  1666  1667    1  0.0000000000      0.0000000000       2
     1657  1661  1666  1687    1  180.0000000000    1.0041600000       2
     1662  1661  1666  1667    1  0.0000000000      0.0000000000       2
     1662  1661  1666  1687    1  180.0000000000    1.0041600000       2
     1690  1661  1666  1667    1  0.0000000000      0.0000000000       2
     1690  1661  1666  1687    1  180.0000000000    0.0000000000       2
     1657  1661  1690  1689    1  0.0000000000      0.0000000000       2
     1657  1661  1690  1691    1  180.0000000000    1.0041600000       2
     1662  1661  1690  1689    1  0.0000000000      0.0000000000       2
     1662  1661  1690  1691    1  180.0000000000    1.0041600000       2
     1666  1661  1690  1689    1  0.0000000000      0.0000000000       2
     1666  1661  1690  1691    1  180.0000000000    0.0000000000       2
     5407  5409  5401  5403    1  0.0000000000      0.6508444444       3
     5401  5409  5407  5405    1  0.0000000000      0.6508444444       3
     1661  1690  1691  1692    1  180.0000000000    15.1670000000      2
     1661  1690  1691  1693    1  180.0000000000    15.1670000000      2
     1689  1690  1691  1692    1  180.0000000000    15.1670000000      2
     1689  1690  1691  1693    1  180.0000000000    15.1670000000      2
     1690  1691  1693  1694    1  180.0000000000    15.1670000000      2
     1690  1691  1693  1723    1  180.0000000000    15.1670000000      2
     1692  1691  1693  1694    1  180.0000000000    15.1670000000      2
     1692  1691  1693  1723    1  180.0000000000    15.1670000000      2
     1681  1679  1677  1678    1  0.0000000000      0.6508444444       3
     6470  1679  1677  1678    1  0.0000000000      0.6508444444       3
     6470  1679  1677  6471    1  0.0000000000      0.6508444444       3
     1681  1679  1677  6471    1  0.0000000000      0.6508444444       3
     5396  5412  5413  5392    1  180.0000000000    15.1670000000      2
     5396  5412  5413  5414    1  180.0000000000    15.1670000000      2
     5399  5412  5413  5392    1  180.0000000000    15.1670000000      2
     5399  5412  5413  5414    1  180.0000000000    15.1670000000      2
     5397  5399  5401  5402    1  0.0000000000      0.5439200000       3
     5397  5399  5401  5409    1  0.0000000000      2.1756800000       3
     5400  5399  5401  5402    1  0.0000000000      0.5020800000       3
     5400  5399  5401  5409    1  0.0000000000      0.5439200000       3
     5412  5399  5401  5402    1  0.0000000000      0.6508444444       3
     5412  5399  5401  5409    1  0.0000000000      0.6508444444       3
     5397  5399  5412  5396    1  180.0000000000    1.0041600000       2
     5397  5399  5412  5413    1  180.0000000000    1.0041600000       2
     5400  5399  5412  5396    1  0.0000000000      0.0000000000       1
     5400  5399  5412  5413    1  0.0000000000      0.0000000000       1
     5401  5399  5412  5396    1  180.0000000000    1.0041600000       2
     5401  5399  5412  5413    1  180.0000000000    1.0041600000       2
     5401  5403  5405  5406    1  0.0000000000      0.6508444444       3
     5401  5403  5405  5407    1  0.0000000000      0.6508444444       3
     5404  5403  5405  5406    1  0.0000000000      0.6508444444       3
     5401  5403  5405  4469    1  0.0000000000      0.6508444444       3
     4470  5403  5405  5406    1  0.0000000000      0.6508444444       3
     1693  1723  1724  1689    1  180.0000000000    15.1670000000      2
     1693  1723  1724  1725    1  180.0000000000    15.1670000000      2
     1696  1723  1724  1689    1  180.0000000000    15.1670000000      2
     1696  1723  1724  1725    1  180.0000000000    15.1670000000      2
     5394  5396  5397  5398    1  0.0000000000      0.0000000000       1
     5394  5396  5397  5399    1  180.0000000000    1.0041600000       2
     5394  5396  5397  5407    1  180.0000000000    1.0041600000       2
     5412  5396  5397  5398    1  0.0000000000      0.0000000000       1
     5412  5396  5397  5399    1  180.0000000000    1.0041600000       2
     5412  5396  5397  5407    1  180.0000000000    1.0041600000       2
     5394  5396  5412  5399    1  180.0000000000    15.1670000000      2
     5394  5396  5412  5413    1  180.0000000000    15.1670000000      2
     5397  5396  5412  5399    1  180.0000000000    15.1670000000      2
     5397  5396  5412  5413    1  180.0000000000    15.1670000000      2
     1679  1681  1671  1670    1  0.0000000000      0.6508444444       3
     1679  1681  1671  1672    1  0.0000000000      0.5439200000       3
     1679  1681  1671  1673    1  0.0000000000      2.1756800000       3
     1671  1681  1679  1677    1  0.0000000000      2.1756800000       3
     1682  1681  1679  1677    1  0.0000000000      0.5439200000       3
     1683  1681  1679  1677    1  0.0000000000      2.1756800000       3
     1671  1681  1679  1680    1  0.0000000000      0.5439200000       3
     1682  1681  1679  1680    1  0.0000000000      0.5020800000       3
     1683  1681  1679  1680    1  0.0000000000      0.5439200000       3
     1671  1681  1683  1675    1  0.0000000000      0.6508444444       3
     1671  1681  1683  1684    1  0.0000000000      0.6508444444       3
     1671  1681  1683  1685    1  0.0000000000      0.6508444444       3
     1679  1681  1683  1684    1  0.0000000000      0.6508444444       3
     1679  1681  1683  1685    1  0.0000000000      0.6508444444       3
     1682  1681  1683  1675    1  0.0000000000      0.5439200000       3
     1682  1681  1683  1684    1  0.0000000000      0.5020800000       3
     1682  1681  1683  1685    1  0.0000000000      0.5020800000       3
     1671  1681  1679  6470    1  0.0000000000      0.6508444444       3
     1682  1681  1679  6470    1  0.0000000000      0.6508444444       3
     1683  1681  1679  6470    1  0.0000000000      0.6508444444       3
     1658  1657  1661  1662    1  0.0000000000      0.5439200000       3
     1658  1657  1661  1666    1  0.0000000000      0.6508444444       3
     1658  1657  1661  1690    1  0.0000000000      0.6508444444       3
     1659  1657  1661  1662    1  0.0000000000      0.5439200000       3
     1659  1657  1661  1666    1  0.0000000000      0.6508444444       3
     1659  1657  1661  1690    1  0.0000000000      0.6508444444       3
     1660  1657  1661  1662    1  0.0000000000      0.5439200000       3
     1660  1657  1661  1666    1  0.0000000000      0.6508444444       3
     1660  1657  1661  1690    1  0.0000000000      0.6508444444       3
     1681  1683  1675  1677    1  0.0000000000      0.6508444444       3
     1675  1683  1681  1679    1  0.0000000000      0.6508444444       3
     5396  5397  5399  5400    1  0.0000000000      0.6508444444       3
     5396  5397  5399  5401    1  0.0000000000      0.6508444444       3
     5396  5397  5399  5412    1  0.0000000000      0.6508444444       3
     5398  5397  5399  5400    1  0.0000000000      0.6508444444       3
     5398  5397  5399  5401    1  0.0000000000      0.6508444444       3
     5398  5397  5399  5412    1  0.0000000000      0.6508444444       3
     5407  5397  5399  5400    1  0.0000000000      0.6508444444       3
     5407  5397  5399  5401    1  0.0000000000      0.6508444444       3
     5407  5397  5399  5412    1  0.0000000000      0.6508444444       3
     5396  5397  5407  5408    1  0.0000000000      0.6508444444       3
     5396  5397  5407  5409    1  0.0000000000      0.6508444444       3
     5398  5397  5407  5408    1  0.0000000000      0.5020800000       3
     5398  5397  5407  5409    1  0.0000000000      0.5439200000       3
     5399  5397  5407  5408    1  0.0000000000      0.5439200000       3
     5399  5397  5407  5409    1  0.0000000000      2.1756800000       3
     1691  1693  1694  1695    1  0.0000000000      0.0000000000       1
     1691  1693  1694  1696    1  180.0000000000    1.0041600000       2
     1691  1693  1694  1718    1  180.0000000000    1.0041600000       2
     1723  1693  1694  1695    1  0.0000000000      0.0000000000       1
     1723  1693  1694  1696    1  180.0000000000    1.0041600000       2
     1723  1693  1694  1718    1  180.0000000000    1.0041600000       2
     1691  1693  1723  1696    1  180.0000000000    15.1670000000      2
     1691  1693  1723  1724    1  180.0000000000    15.1670000000      2
     1694  1693  1723  1696    1  180.0000000000    15.1670000000      2
     1694  1693  1723  1724    1  180.0000000000    15.1670000000      2
     5397  5407  5405  5403    1  0.0000000000      2.1756800000       3
     5408  5407  5405  5403    1  0.0000000000      0.5439200000       3
     5409  5407  5405  5403    1  0.0000000000      2.1756800000       3
     5397  5407  5405  5406    1  0.0000000000      0.5439200000       3
     5408  5407  5405  5406    1  0.0000000000      0.5020800000       3
     5409  5407  5405  5406    1  0.0000000000      0.5439200000       3
     5405  5407  5397  5396    1  0.0000000000      0.6508444444       3
     5405  5407  5397  5398    1  0.0000000000      0.5439200000       3
     5405  5407  5397  5399    1  0.0000000000      2.1756800000       3
     5397  5407  5409  5401    1  0.0000000000      0.6508444444       3
     5397  5407  5409  5410    1  0.0000000000      0.6508444444       3
     5397  5407  5409  5411    1  0.0000000000      0.6508444444       3
     5405  5407  5409  5410    1  0.0000000000      0.6508444444       3
     5405  5407  5409  5411    1  0.0000000000      0.6508444444       3
     5408  5407  5409  5401    1  0.0000000000      0.5439200000       3
     5408  5407  5409  5410    1  0.0000000000      0.5020800000       3
     5408  5407  5409  5411    1  0.0000000000      0.5020800000       3
     5397  5407  5405  4469    1  0.0000000000      0.6508444444       3
     5408  5407  5405  4469    1  0.0000000000      0.6508444444       3
     5409  5407  5405  4469    1  0.0000000000      0.6508444444       3
     4469  4470  4471  4462    1  180.0000000000    15.1670000000      2
     4471  4470  4469  5405    1  180.0000000000    15.1670000000      2
     4471  4470  5403  5404    1  0.0000000000      0.0000000000       1
     4469  4470  5403  5404    1  0.0000000000      0.0000000000       1
     4471  4470  5403  5405    1  180.0000000000    1.0041600000       2
     4469  4470  5403  5405    1  180.0000000000    1.0041600000       2
     4471  4470  5403  5401    1  180.0000000000    1.0041600000       2
     4469  4470  5403  5401    1  180.0000000000    1.0041600000       2
     1675  1677  1679  1680    1  0.0000000000      0.6508444444       3
     1675  1677  1679  1681    1  0.0000000000      0.6508444444       3
     1678  1677  1679  1680    1  0.0000000000      0.6508444444       3
     1675  1677  1679  6470    1  0.0000000000      0.6508444444       3
     6471  1677  1679  1680    1  0.0000000000      0.6508444444       3
     1348  1378  1379  1344    1  180.0000000000    15.1670000000      2
     1348  1378  1379  1380    1  180.0000000000    15.1670000000      2
     1351  1378  1379  1344    1  180.0000000000    15.1670000000      2
     1351  1378  1379  1380    1  180.0000000000    15.1670000000      2
     5393  5394  5396  5397    1  180.0000000000    15.1670000000      2
     5393  5394  5396  5412    1  180.0000000000    15.1670000000      2
     5395  5394  5396  5397    1  180.0000000000    15.1670000000      2
     5395  5394  5396  5412    1  180.0000000000    15.1670000000      2
     678   677   676   675     1  0.0000000000      0.0000000000       2
     679   677   676   675     1  0.0000000000      0.0000000000       2
     680   677   676   675     1  0.0000000000      0.0000000000       2
     1888  1890  1882  1884    1  0.0000000000      0.6508444444       3
     1882  1890  1888  1886    1  0.0000000000      0.6508444444       3
     5387  5392  5393  5394    1  180.0000000000    15.1670000000      2
     5387  5392  5393  5415    1  180.0000000000    15.1670000000      2
     5413  5392  5393  5394    1  180.0000000000    15.1670000000      2
     5413  5392  5393  5415    1  180.0000000000    15.1670000000      2
     5387  5392  5413  5412    1  180.0000000000    15.1670000000      2
     5387  5392  5413  5414    1  180.0000000000    15.1670000000      2
     5393  5392  5413  5412    1  180.0000000000    15.1670000000      2
     5393  5392  5413  5414    1  180.0000000000    15.1670000000      2
     5392  5393  5394  5395    1  180.0000000000    15.1670000000      2
     5392  5393  5394  5396    1  180.0000000000    15.1670000000      2
     5415  5393  5394  5395    1  180.0000000000    15.1670000000      2
     5415  5393  5394  5396    1  180.0000000000    15.1670000000      2
     5392  5393  5415  5416    1  180.0000000000    4.1840000000       2
     5392  5393  5415  5450    1  180.0000000000    4.1840000000       2
     5394  5393  5415  5416    1  180.0000000000    4.1840000000       2
     5394  5393  5415  5450    1  180.0000000000    4.1840000000       2
     6465  6470  6471  6472    1  180.0000000000    15.1670000000      2
     1679  6470  6471  1677    1  180.0000000000    15.1670000000      2
     6465  6470  1679  1677    1  180.0000000000    1.0041600000       2
     6471  6470  1679  1677    1  180.0000000000    1.0041600000       2
     6465  6470  1679  1680    1  0.0000000000      0.0000000000       1
     6471  6470  1679  1680    1  0.0000000000      0.0000000000       1
     6465  6470  1679  1681    1  180.0000000000    1.0041600000       2
     6471  6470  1679  1681    1  180.0000000000    1.0041600000       2
     6465  6470  6471  1677    1  180.0000000000    15.1670000000      2
     4462  4463  4464  4465    1  180.0000000000    15.1670000000      2
     4462  4463  4464  4469    1  180.0000000000    15.1670000000      2
     4476  4463  4464  4465    1  180.0000000000    15.1670000000      2
     4462  4463  4476  4460    1  180.0000000000    1.0041600000       2
     4462  4463  4476  4477    1  0.0000000000      0.0000000000       1
     4462  4463  4476  4478    1  180.0000000000    1.0041600000       2
     4464  4463  4476  4460    1  180.0000000000    1.0041600000       2
     4464  4463  4476  4477    1  0.0000000000      0.0000000000       1
     4464  4463  4476  4478    1  180.0000000000    1.0041600000       2
     623   622   626   627     1  0.0000000000      0.5439200000       3
     623   622   626   631     1  0.0000000000      0.6508444444       3
     623   622   626   655     1  0.0000000000      0.6508444444       3
     624   622   626   627     1  0.0000000000      0.5439200000       3
     624   622   626   631     1  0.0000000000      0.6508444444       3
     624   622   626   655     1  0.0000000000      0.6508444444       3
     625   622   626   627     1  0.0000000000      0.5439200000       3
     625   622   626   631     1  0.0000000000      0.6508444444       3
     625   622   626   655     1  0.0000000000      0.6508444444       3
     631   632   633   634     1  180.0000000000    15.1670000000      2
     631   632   633   635     1  180.0000000000    15.1670000000      2
     654   632   633   634     1  180.0000000000    15.1670000000      2
     654   632   633   635     1  180.0000000000    15.1670000000      2
     631   632   654   655     1  180.0000000000    4.1840000000       2
     631   632   654   689     1  180.0000000000    4.1840000000       2
     633   632   654   655     1  180.0000000000    4.1840000000       2
     633   632   654   689     1  180.0000000000    4.1840000000       2
     4473  4472  4471  4470    1  0.0000000000      0.0000000000       2
     4474  4472  4471  4470    1  0.0000000000      0.0000000000       2
     4475  4472  4471  4470    1  0.0000000000      0.0000000000       2
     1878  1880  1882  1883    1  0.0000000000      0.5439200000       3
     1878  1880  1882  1890    1  0.0000000000      2.1756800000       3
     1881  1880  1882  1883    1  0.0000000000      0.5020800000       3
     1881  1880  1882  1890    1  0.0000000000      0.5439200000       3
     1893  1880  1882  1883    1  0.0000000000      0.6508444444       3
     1893  1880  1882  1890    1  0.0000000000      0.6508444444       3
     1878  1880  1893  1877    1  180.0000000000    1.0041600000       2
     1878  1880  1893  1894    1  180.0000000000    1.0041600000       2
     1881  1880  1893  1877    1  0.0000000000      0.0000000000       1
     1881  1880  1893  1894    1  0.0000000000      0.0000000000       1
     1882  1880  1893  1877    1  180.0000000000    1.0041600000       2
     1882  1880  1893  1894    1  180.0000000000    1.0041600000       2
     655   656   658   659     1  180.0000000000    15.1670000000      2
     655   656   658   688     1  180.0000000000    15.1670000000      2
     657   656   658   659     1  180.0000000000    15.1670000000      2
     657   656   658   688     1  180.0000000000    15.1670000000      2
     663   665   667   668     1  180.0000000000    1.0041600000       2
     663   665   667   676     1  180.0000000000    1.0041600000       2
     666   665   667   668     1  0.0000000000      0.0000000000       1
     666   665   667   676     1  0.0000000000      0.0000000000       1
     681   665   667   668     1  180.0000000000    1.0041600000       2
     681   665   667   676     1  180.0000000000    1.0041600000       2
     663   665   681   668     1  0.0000000000      0.6508444444       3
     663   665   681   682     1  0.0000000000      0.6508444444       3
     663   665   681   683     1  0.0000000000      0.6508444444       3
     666   665   681   668     1  0.0000000000      0.6508444444       3
     666   665   681   682     1  0.0000000000      0.6508444444       3
     666   665   681   683     1  0.0000000000      0.6508444444       3
     667   665   681   668     1  0.0000000000      0.6508444444       3
     667   665   681   682     1  0.0000000000      0.6508444444       3
     667   665   681   683     1  0.0000000000      0.6508444444       3
     4470  4471  4462  4460    1  180.0000000000    15.1670000000      2
     4472  4471  4470  4469    1  180.0000000000    15.1670000000      2
     4462  4471  4472  4473    1  0.0000000000      0.0000000000       2
     4462  4471  4472  4474    1  0.0000000000      0.0000000000       2
     4462  4471  4472  4475    1  0.0000000000      0.0000000000       2
     4462  4471  4470  5403    1  180.0000000000    15.1670000000      2
     4472  4471  4470  5403    1  180.0000000000    15.1670000000      2
     656   658   659   660     1  0.0000000000      0.0000000000       1
     656   658   659   661     1  180.0000000000    1.0041600000       2
     656   658   659   683     1  180.0000000000    1.0041600000       2
     688   658   659   660     1  0.0000000000      0.0000000000       1
     688   658   659   661     1  180.0000000000    1.0041600000       2
     688   658   659   683     1  180.0000000000    1.0041600000       2
     656   658   688   661     1  180.0000000000    15.1670000000      2
     656   658   688   689     1  180.0000000000    15.1670000000      2
     659   658   688   661     1  180.0000000000    15.1670000000      2
     659   658   688   689     1  180.0000000000    15.1670000000      2
     659   661   663   664     1  0.0000000000      0.5439200000       3
     659   661   663   665     1  0.0000000000      2.1756800000       3
     659   661   663   685     1  0.0000000000      2.1756800000       3
     662   661   663   664     1  0.0000000000      0.5020800000       3
     662   661   663   665     1  0.0000000000      0.5439200000       3
     662   661   663   685     1  0.0000000000      0.5439200000       3
     688   661   663   664     1  0.0000000000      0.6508444444       3
     688   661   663   665     1  0.0000000000      0.6508444444       3
     688   661   663   685     1  0.0000000000      0.6508444444       3
     659   661   688   658     1  180.0000000000    1.0041600000       2
     659   661   688   689     1  180.0000000000    1.0041600000       2
     662   661   688   658     1  0.0000000000      0.0000000000       1
     662   661   688   689     1  0.0000000000      0.0000000000       1
     663   661   688   658     1  180.0000000000    1.0041600000       2
     663   661   688   689     1  180.0000000000    1.0041600000       2
     661   663   665   666     1  0.0000000000      0.5439200000       3
     661   663   665   667     1  0.0000000000      0.6508444444       3
     661   663   665   681     1  0.0000000000      2.1756800000       3
     664   663   665   666     1  0.0000000000      0.5020800000       3
     664   663   665   667     1  0.0000000000      0.6508444444       3
     664   663   665   681     1  0.0000000000      0.5439200000       3
     685   663   665   666     1  0.0000000000      0.5439200000       3
     685   663   665   667     1  0.0000000000      0.6508444444       3
     685   663   665   681     1  0.0000000000      2.1756800000       3
     661   663   685   683     1  0.0000000000      0.6508444444       3
     661   663   685   686     1  0.0000000000      0.6508444444       3
     661   663   685   687     1  0.0000000000      0.6508444444       3
     664   663   685   683     1  0.0000000000      0.5439200000       3
     664   663   685   686     1  0.0000000000      0.5020800000       3
     664   663   685   687     1  0.0000000000      0.5020800000       3
     665   663   685   683     1  0.0000000000      0.6508444444       3
     665   663   685   686     1  0.0000000000      0.6508444444       3
     665   663   685   687     1  0.0000000000      0.6508444444       3
     667   668   669   670     1  180.0000000000    15.1670000000      2
     667   668   669   674     1  180.0000000000    15.1670000000      2
     681   668   669   670     1  180.0000000000    15.1670000000      2
     667   668   681   665     1  180.0000000000    1.0041600000       2
     667   668   681   682     1  0.0000000000      0.0000000000       1
     667   668   681   683     1  180.0000000000    1.0041600000       2
     669   668   681   665     1  180.0000000000    1.0041600000       2
     669   668   681   682     1  0.0000000000      0.0000000000       1
     669   668   681   683     1  180.0000000000    1.0041600000       2
     4458  4460  4462  4463    1  180.0000000000    1.0041600000       2
     4458  4460  4462  4471    1  180.0000000000    1.0041600000       2
     4461  4460  4462  4463    1  0.0000000000      0.0000000000       1
     4461  4460  4462  4471    1  0.0000000000      0.0000000000       1
     4476  4460  4462  4463    1  180.0000000000    1.0041600000       2
     4476  4460  4462  4471    1  180.0000000000    1.0041600000       2
     4458  4460  4476  4463    1  0.0000000000      0.6508444444       3
     4458  4460  4476  4477    1  0.0000000000      0.6508444444       3
     4458  4460  4476  4478    1  0.0000000000      0.6508444444       3
     4461  4460  4476  4463    1  0.0000000000      0.6508444444       3
     4461  4460  4476  4477    1  0.0000000000      0.6508444444       3
     4461  4460  4476  4478    1  0.0000000000      0.6508444444       3
     4462  4460  4476  4463    1  0.0000000000      0.6508444444       3
     4462  4460  4476  4477    1  0.0000000000      0.6508444444       3
     4462  4460  4476  4478    1  0.0000000000      0.6508444444       3
     658   659   661   662     1  0.0000000000      0.6508444444       3
     658   659   661   663     1  0.0000000000      0.6508444444       3
     658   659   661   688     1  0.0000000000      0.6508444444       3
     660   659   661   662     1  0.0000000000      0.6508444444       3
     660   659   661   663     1  0.0000000000      0.6508444444       3
     660   659   661   688     1  0.0000000000      0.6508444444       3
     683   659   661   662     1  0.0000000000      0.6508444444       3
     683   659   661   663     1  0.0000000000      0.6508444444       3
     683   659   661   688     1  0.0000000000      0.6508444444       3
     658   659   683   681     1  0.0000000000      0.6508444444       3
     658   659   683   684     1  0.0000000000      0.6508444444       3
     658   659   683   685     1  0.0000000000      0.6508444444       3
     660   659   683   681     1  0.0000000000      0.5439200000       3
     660   659   683   684     1  0.0000000000      0.5020800000       3
     660   659   683   685     1  0.0000000000      0.5439200000       3
     661   659   683   681     1  0.0000000000      2.1756800000       3
     661   659   683   684     1  0.0000000000      0.5439200000       3
     661   659   683   685     1  0.0000000000      2.1756800000       3
     632   654   655   626     1  180.0000000000    15.1670000000      2
     632   654   655   656     1  180.0000000000    15.1670000000      2
     689   654   655   626     1  180.0000000000    15.1670000000      2
     689   654   655   656     1  180.0000000000    15.1670000000      2
     632   654   689   688     1  180.0000000000    15.1670000000      2
     632   654   689   690     1  180.0000000000    15.1670000000      2
     655   654   689   688     1  180.0000000000    15.1670000000      2
     655   654   689   690     1  180.0000000000    15.1670000000      2
     626   631   632   633     1  180.0000000000    15.1670000000      2
     626   631   632   654     1  180.0000000000    15.1670000000      2
     652   631   632   633     1  180.0000000000    15.1670000000      2
     652   631   632   654     1  180.0000000000    15.1670000000      2
     626   631   652   651     1  180.0000000000    15.1670000000      2
     626   631   652   653     1  180.0000000000    15.1670000000      2
     632   631   652   651     1  180.0000000000    15.1670000000      2
     632   631   652   653     1  180.0000000000    15.1670000000      2
     4460  4462  4463  4464    1  180.0000000000    15.1670000000      2
     4460  4462  4463  4476    1  180.0000000000    15.1670000000      2
     4471  4462  4463  4464    1  180.0000000000    15.1670000000      2
     4471  4462  4463  4476    1  180.0000000000    15.1670000000      2
     4460  4462  4471  4472    1  180.0000000000    15.1670000000      2
     4463  4462  4471  4470    1  180.0000000000    15.1670000000      2
     4463  4462  4471  4472    1  180.0000000000    15.1670000000      2
     665   667   668   669     1  180.0000000000    15.1670000000      2
     665   667   668   681     1  180.0000000000    15.1670000000      2
     676   667   668   669     1  180.0000000000    15.1670000000      2
     676   667   668   681     1  180.0000000000    15.1670000000      2
     665   667   676   677     1  180.0000000000    15.1670000000      2
     668   667   676   675     1  180.0000000000    15.1670000000      2
     668   667   676   677     1  180.0000000000    15.1670000000      2
     658   688   689   654     1  180.0000000000    15.1670000000      2
     658   688   689   690     1  180.0000000000    15.1670000000      2
     661   688   689   654     1  180.0000000000    15.1670000000      2
     661   688   689   690     1  180.0000000000    15.1670000000      2
     1884  1882  1880  1878    1  0.0000000000      2.1756800000       3
     1884  1882  1880  1881    1  0.0000000000      0.5439200000       3
     1884  1882  1880  1893    1  0.0000000000      0.6508444444       3
     1880  1882  1884  1885    1  0.0000000000      0.5439200000       3
     1880  1882  1884  1886    1  0.0000000000      2.1756800000       3
     1883  1882  1884  1885    1  0.0000000000      0.5020800000       3
     1883  1882  1884  1886    1  0.0000000000      0.5439200000       3
     1890  1882  1884  1885    1  0.0000000000      0.5439200000       3
     1890  1882  1884  1886    1  0.0000000000      2.1756800000       3
     1880  1882  1890  1888    1  0.0000000000      0.6508444444       3
     1880  1882  1890  1891    1  0.0000000000      0.6508444444       3
     1880  1882  1890  1892    1  0.0000000000      0.6508444444       3
     1883  1882  1890  1888    1  0.0000000000      0.5439200000       3
     1883  1882  1890  1891    1  0.0000000000      0.5020800000       3
     1883  1882  1890  1892    1  0.0000000000      0.5020800000       3
     1884  1882  1890  1891    1  0.0000000000      0.6508444444       3
     1884  1882  1890  1892    1  0.0000000000      0.6508444444       3
     1880  1882  1884  2537    1  0.0000000000      0.6508444444       3
     1883  1882  1884  2537    1  0.0000000000      0.6508444444       3
     1890  1882  1884  2537    1  0.0000000000      0.6508444444       3
     626   655   656   657     1  180.0000000000    15.1670000000      2
     626   655   656   658     1  180.0000000000    15.1670000000      2
     654   655   656   657     1  180.0000000000    15.1670000000      2
     654   655   656   658     1  180.0000000000    15.1670000000      2
     622   626   627   628     1  0.0000000000      0.5439200000       3
     622   626   627   629     1  0.0000000000      0.5439200000       3
     622   626   627   630     1  0.0000000000      0.5439200000       3
     631   626   627   628     1  0.0000000000      0.6508444444       3
     631   626   627   629     1  0.0000000000      0.6508444444       3
     631   626   627   630     1  0.0000000000      0.6508444444       3
     655   626   627   628     1  0.0000000000      0.6508444444       3
     655   626   627   629     1  0.0000000000      0.6508444444       3
     655   626   627   630     1  0.0000000000      0.6508444444       3
     622   626   631   632     1  0.0000000000      0.0000000000       2
     622   626   631   652     1  180.0000000000    1.0041600000       2
     627   626   631   632     1  0.0000000000      0.0000000000       2
     627   626   631   652     1  180.0000000000    1.0041600000       2
     655   626   631   632     1  0.0000000000      0.0000000000       2
     655   626   631   652     1  180.0000000000    0.0000000000       2
     622   626   655   654     1  0.0000000000      0.0000000000       2
     622   626   655   656     1  180.0000000000    1.0041600000       2
     627   626   655   654     1  0.0000000000      0.0000000000       2
     627   626   655   656     1  180.0000000000    1.0041600000       2
     631   626   655   654     1  0.0000000000      0.0000000000       2
     631   626   655   656     1  180.0000000000    0.0000000000       2
     675   676   667   665     1  180.0000000000    15.1670000000      2
     677   676   675   674     1  180.0000000000    15.1670000000      2
     667   676   677   678     1  0.0000000000      0.0000000000       2
     667   676   677   679     1  0.0000000000      0.0000000000       2
     667   676   677   680     1  0.0000000000      0.0000000000       2
     667   676   675   2712    1  180.0000000000    15.1670000000      2
     677   676   675   2712    1  180.0000000000    15.1670000000      2
     3641  3642  3643  3634    1  180.0000000000    15.1670000000      2
     3643  3642  3641  2160    1  180.0000000000    15.1670000000      2
     3641  3642  2162  2163    1  0.0000000000      0.0000000000       1
     3643  3642  2162  2163    1  0.0000000000      0.0000000000       1
     3641  3642  2162  2164    1  180.0000000000    1.0041600000       2
     3643  3642  2162  2164    1  180.0000000000    1.0041600000       2
     3641  3642  2162  2160    1  180.0000000000    1.0041600000       2
     3643  3642  2162  2160    1  180.0000000000    1.0041600000       2
     3644  3643  3642  3641    1  180.0000000000    15.1670000000      2
     3634  3643  3644  3645    1  0.0000000000      0.0000000000       2
     3634  3643  3644  3646    1  0.0000000000      0.0000000000       2
     3634  3643  3644  3647    1  0.0000000000      0.0000000000       2
     3642  3643  3634  3632    1  180.0000000000    15.1670000000      2
     3644  3643  3642  2162    1  180.0000000000    15.1670000000      2
     3634  3643  3642  2162    1  180.0000000000    15.1670000000      2
     6455  6457  6459  6460    1  0.0000000000      0.5439200000       3
     6455  6457  6459  6461    1  0.0000000000      2.1756800000       3
     6455  6457  6459  6481    1  0.0000000000      2.1756800000       3
     6458  6457  6459  6460    1  0.0000000000      0.5020800000       3
     6458  6457  6459  6461    1  0.0000000000      0.5439200000       3
     6458  6457  6459  6481    1  0.0000000000      0.5439200000       3
     6484  6457  6459  6460    1  0.0000000000      0.6508444444       3
     6484  6457  6459  6461    1  0.0000000000      0.6508444444       3
     6484  6457  6459  6481    1  0.0000000000      0.6508444444       3
     6455  6457  6484  6454    1  180.0000000000    1.0041600000       2
     6455  6457  6484  6485    1  180.0000000000    1.0041600000       2
     6458  6457  6484  6454    1  0.0000000000      0.0000000000       1
     6458  6457  6484  6485    1  0.0000000000      0.0000000000       1
     6459  6457  6484  6454    1  180.0000000000    1.0041600000       2
     6459  6457  6484  6485    1  180.0000000000    1.0041600000       2
     3632  3634  3635  3636    1  180.0000000000    15.1670000000      2
     3632  3634  3635  3648    1  180.0000000000    15.1670000000      2
     3643  3634  3635  3636    1  180.0000000000    15.1670000000      2
     3643  3634  3635  3648    1  180.0000000000    15.1670000000      2
     3632  3634  3643  3644    1  180.0000000000    15.1670000000      2
     3635  3634  3643  3642    1  180.0000000000    15.1670000000      2
     3635  3634  3643  3644    1  180.0000000000    15.1670000000      2
     3636  3641  3642  3643    1  180.0000000000    15.1670000000      2
     2160  3641  3642  2162    1  180.0000000000    15.1670000000      2
     3642  3641  2160  2158    1  180.0000000000    1.0041600000       2
     3636  3641  2160  2158    1  180.0000000000    1.0041600000       2
     3642  3641  2160  2161    1  0.0000000000      0.0000000000       1
     3636  3641  2160  2161    1  0.0000000000      0.0000000000       1
     3642  3641  2160  2162    1  180.0000000000    1.0041600000       2
     3636  3641  2160  2162    1  180.0000000000    1.0041600000       2
     3636  3641  3642  2162    1  180.0000000000    15.1670000000      2
     6454  6484  6485  6450    1  180.0000000000    15.1670000000      2
     6454  6484  6485  6486    1  180.0000000000    15.1670000000      2
     6457  6484  6485  6450    1  180.0000000000    15.1670000000      2
     6457  6484  6485  6486    1  180.0000000000    15.1670000000      2
     6454  6455  6457  6458    1  0.0000000000      0.6508444444       3
     6454  6455  6457  6459    1  0.0000000000      0.6508444444       3
     6454  6455  6457  6484    1  0.0000000000      0.6508444444       3
     6456  6455  6457  6458    1  0.0000000000      0.6508444444       3
     6456  6455  6457  6459    1  0.0000000000      0.6508444444       3
     6456  6455  6457  6484    1  0.0000000000      0.6508444444       3
     6479  6455  6457  6458    1  0.0000000000      0.6508444444       3
     6479  6455  6457  6459    1  0.0000000000      0.6508444444       3
     6479  6455  6457  6484    1  0.0000000000      0.6508444444       3
     6454  6455  6479  6477    1  0.0000000000      0.6508444444       3
     6454  6455  6479  6480    1  0.0000000000      0.6508444444       3
     6454  6455  6479  6481    1  0.0000000000      0.6508444444       3
     6456  6455  6479  6477    1  0.0000000000      0.5439200000       3
     6456  6455  6479  6480    1  0.0000000000      0.5020800000       3
     6456  6455  6479  6481    1  0.0000000000      0.5439200000       3
     6457  6455  6479  6477    1  0.0000000000      2.1756800000       3
     6457  6455  6479  6480    1  0.0000000000      0.5439200000       3
     6457  6455  6479  6481    1  0.0000000000      2.1756800000       3
     6452  6454  6455  6456    1  0.0000000000      0.0000000000       1
     6452  6454  6455  6457    1  180.0000000000    1.0041600000       2
     6452  6454  6455  6479    1  180.0000000000    1.0041600000       2
     6484  6454  6455  6456    1  0.0000000000      0.0000000000       1
     6484  6454  6455  6457    1  180.0000000000    1.0041600000       2
     6484  6454  6455  6479    1  180.0000000000    1.0041600000       2
     6452  6454  6484  6457    1  180.0000000000    15.1670000000      2
     6452  6454  6484  6485    1  180.0000000000    15.1670000000      2
     6455  6454  6484  6457    1  180.0000000000    15.1670000000      2
     6455  6454  6484  6485    1  180.0000000000    15.1670000000      2
     3630  3632  3634  3635    1  180.0000000000    1.0041600000       2
     3630  3632  3634  3643    1  180.0000000000    1.0041600000       2
     3633  3632  3634  3635    1  0.0000000000      0.0000000000       1
     3633  3632  3634  3643    1  0.0000000000      0.0000000000       1
     3648  3632  3634  3635    1  180.0000000000    1.0041600000       2
     3648  3632  3634  3643    1  180.0000000000    1.0041600000       2
     3630  3632  3648  3635    1  0.0000000000      0.6508444444       3
     3630  3632  3648  3649    1  0.0000000000      0.6508444444       3
     3630  3632  3648  3650    1  0.0000000000      0.6508444444       3
     3633  3632  3648  3635    1  0.0000000000      0.6508444444       3
     3633  3632  3648  3649    1  0.0000000000      0.6508444444       3
     3633  3632  3648  3650    1  0.0000000000      0.6508444444       3
     3634  3632  3648  3635    1  0.0000000000      0.6508444444       3
     3634  3632  3648  3649    1  0.0000000000      0.6508444444       3
     3634  3632  3648  3650    1  0.0000000000      0.6508444444       3
     3645  3644  3643  3642    1  0.0000000000      0.0000000000       2
     3646  3644  3643  3642    1  0.0000000000      0.0000000000       2
     3647  3644  3643  3642    1  0.0000000000      0.0000000000       2
     6451  6452  6454  6455    1  180.0000000000    15.1670000000      2
     6451  6452  6454  6484    1  180.0000000000    15.1670000000      2
     6453  6452  6454  6455    1  180.0000000000    15.1670000000      2
     6453  6452  6454  6484    1  180.0000000000    15.1670000000      2
     2158  2160  2162  2163    1  0.0000000000      0.6508444444       3
     2158  2160  2162  2164    1  0.0000000000      0.6508444444       3
     2161  2160  2162  2163    1  0.0000000000      0.6508444444       3
     3641  2160  2162  2163    1  0.0000000000      0.6508444444       3
     3641  2160  2162  3642    1  0.0000000000      0.6508444444       3
     2158  2160  2162  3642    1  0.0000000000      0.6508444444       3
     2164  2166  2158  2160    1  0.0000000000      0.6508444444       3
     2158  2166  2164  2162    1  0.0000000000      0.6508444444       3
     2164  2162  2160  2161    1  0.0000000000      0.6508444444       3
     2164  2162  2160  3641    1  0.0000000000      0.6508444444       3
     3642  2162  2160  2161    1  0.0000000000      0.6508444444       3
     2156  2158  2160  2161    1  0.0000000000      0.5439200000       3
     2156  2158  2160  2162    1  0.0000000000      2.1756800000       3
     2159  2158  2160  2161    1  0.0000000000      0.5020800000       3
     2159  2158  2160  2162    1  0.0000000000      0.5439200000       3
     2166  2158  2160  2161    1  0.0000000000      0.5439200000       3
     2166  2158  2160  2162    1  0.0000000000      2.1756800000       3
     2156  2158  2166  2164    1  0.0000000000      0.6508444444       3
     2156  2158  2166  2167    1  0.0000000000      0.6508444444       3
     2156  2158  2166  2168    1  0.0000000000      0.6508444444       3
     2159  2158  2166  2164    1  0.0000000000      0.5439200000       3
     2159  2158  2166  2167    1  0.0000000000      0.5020800000       3
     2159  2158  2166  2168    1  0.0000000000      0.5020800000       3
     2160  2158  2166  2167    1  0.0000000000      0.6508444444       3
     2160  2158  2166  2168    1  0.0000000000      0.6508444444       3
     2160  2158  2156  2154    1  0.0000000000      2.1756800000       3
     2160  2158  2156  2157    1  0.0000000000      0.5439200000       3
     2160  2158  2156  2169    1  0.0000000000      0.6508444444       3
     2159  2158  2160  3641    1  0.0000000000      0.6508444444       3
     2166  2158  2160  3641    1  0.0000000000      0.6508444444       3
     2156  2158  2160  3641    1  0.0000000000      0.6508444444       3
     5834  5858  5860  5838    1  0.0000000000      0.6508444444       3
     5834  5858  5860  5861    1  0.0000000000      0.6508444444       3
     5834  5858  5860  5862    1  0.0000000000      0.6508444444       3
     5856  5858  5860  5838    1  0.0000000000      0.6508444444       3
     5856  5858  5860  5861    1  0.0000000000      0.6508444444       3
     5856  5858  5860  5862    1  0.0000000000      0.6508444444       3
     5859  5858  5860  5838    1  0.0000000000      0.5439200000       3
     5859  5858  5860  5861    1  0.0000000000      0.5020800000       3
     5859  5858  5860  5862    1  0.0000000000      0.5020800000       3
     2154  2164  2166  2158    1  0.0000000000      0.6508444444       3
     2154  2164  2166  2167    1  0.0000000000      0.6508444444       3
     2154  2164  2166  2168    1  0.0000000000      0.6508444444       3
     2162  2164  2166  2167    1  0.0000000000      0.6508444444       3
     2162  2164  2166  2168    1  0.0000000000      0.6508444444       3
     2165  2164  2166  2158    1  0.0000000000      0.5439200000       3
     2165  2164  2166  2167    1  0.0000000000      0.5020800000       3
     2165  2164  2166  2168    1  0.0000000000      0.5020800000       3
     2154  2164  2162  2160    1  0.0000000000      2.1756800000       3
     2165  2164  2162  2160    1  0.0000000000      0.5439200000       3
     2166  2164  2162  2160    1  0.0000000000      2.1756800000       3
     2154  2164  2162  2163    1  0.0000000000      0.5439200000       3
     2165  2164  2162  2163    1  0.0000000000      0.5020800000       3
     2166  2164  2162  2163    1  0.0000000000      0.5439200000       3
     2162  2164  2154  2153    1  0.0000000000      0.6508444444       3
     2162  2164  2154  2155    1  0.0000000000      0.5439200000       3
     2162  2164  2154  2156    1  0.0000000000      2.1756800000       3
     2165  2164  2162  3642    1  0.0000000000      0.6508444444       3
     2166  2164  2162  3642    1  0.0000000000      0.6508444444       3
     2154  2164  2162  3642    1  0.0000000000      0.6508444444       3
     6457  6459  6461  6462    1  0.0000000000      0.5439200000       3
     6457  6459  6461  6463    1  0.0000000000      0.6508444444       3
     6457  6459  6461  6477    1  0.0000000000      2.1756800000       3
     6460  6459  6461  6462    1  0.0000000000      0.5020800000       3
     6460  6459  6461  6463    1  0.0000000000      0.6508444444       3
     6460  6459  6461  6477    1  0.0000000000      0.5439200000       3
     6481  6459  6461  6462    1  0.0000000000      0.5439200000       3
     6481  6459  6461  6463    1  0.0000000000      0.6508444444       3
     6481  6459  6461  6477    1  0.0000000000      2.1756800000       3
     6457  6459  6481  6479    1  0.0000000000      0.6508444444       3
     6457  6459  6481  6482    1  0.0000000000      0.6508444444       3
     6457  6459  6481  6483    1  0.0000000000      0.6508444444       3
     6460  6459  6481  6479    1  0.0000000000      0.5439200000       3
     6460  6459  6481  6482    1  0.0000000000      0.5020800000       3
     6460  6459  6481  6483    1  0.0000000000      0.5020800000       3
     6461  6459  6481  6479    1  0.0000000000      0.6508444444       3
     6461  6459  6481  6482    1  0.0000000000      0.6508444444       3
     6461  6459  6481  6483    1  0.0000000000      0.6508444444       3
     3632  3648  3650  3626    1  0.0000000000      2.1756800000       3
     3632  3648  3650  3651    1  0.0000000000      0.5439200000       3
     3632  3648  3650  3652    1  0.0000000000      2.1756800000       3
     3635  3648  3650  3626    1  0.0000000000      0.6508444444       3
     3635  3648  3650  3651    1  0.0000000000      0.6508444444       3
     3635  3648  3650  3652    1  0.0000000000      0.6508444444       3
     3649  3648  3650  3626    1  0.0000000000      0.5439200000       3
     3649  3648  3650  3651    1  0.0000000000      0.5020800000       3
     3649  3648  3650  3652    1  0.0000000000      0.5439200000       3
     3692  3694  3695  3696    1  0.0000000000      0.0000000000       1
     3692  3694  3695  3697    1  180.0000000000    1.0041600000       2
     3692  3694  3695  3719    1  180.0000000000    1.0041600000       2
     3724  3694  3695  3696    1  0.0000000000      0.0000000000       1
     3724  3694  3695  3697    1  180.0000000000    1.0041600000       2
     3724  3694  3695  3719    1  180.0000000000    1.0041600000       2
     3692  3694  3724  3697    1  180.0000000000    15.1670000000      2
     3692  3694  3724  3725    1  180.0000000000    15.1670000000      2
     3695  3694  3724  3697    1  180.0000000000    15.1670000000      2
     3695  3694  3724  3725    1  180.0000000000    15.1670000000      2
     3634  3635  3636  3637    1  180.0000000000    15.1670000000      2
     3634  3635  3636  3641    1  180.0000000000    15.1670000000      2
     3648  3635  3636  3637    1  180.0000000000    15.1670000000      2
     3634  3635  3648  3632    1  180.0000000000    1.0041600000       2
     3634  3635  3648  3649    1  0.0000000000      0.0000000000       1
     3634  3635  3648  3650    1  180.0000000000    1.0041600000       2
     3636  3635  3648  3632    1  180.0000000000    1.0041600000       2
     3636  3635  3648  3649    1  0.0000000000      0.0000000000       1
     3636  3635  3648  3650    1  180.0000000000    1.0041600000       2
     3641  3636  3635  3648    1  180.0000000000    15.1670000000      2
     3635  3636  3637  3638    1  0.0000000000      0.0000000000       2
     3635  3636  3637  3639    1  0.0000000000      0.0000000000       2
     3635  3636  3637  3640    1  0.0000000000      0.0000000000       2
     3635  3636  3641  3642    1  180.0000000000    15.1670000000      2
     3637  3636  3641  3642    1  180.0000000000    15.1670000000      2
     3635  3636  3641  2160    1  180.0000000000    15.1670000000      2
     3637  3636  3641  2160    1  180.0000000000    15.1670000000      2
     3628  3630  3632  3633    1  0.0000000000      0.5439200000       3
     3628  3630  3632  3634    1  0.0000000000      0.6508444444       3
     3628  3630  3632  3648    1  0.0000000000      2.1756800000       3
     3631  3630  3632  3633    1  0.0000000000      0.5020800000       3
     3631  3630  3632  3634    1  0.0000000000      0.6508444444       3
     3631  3630  3632  3648    1  0.0000000000      0.5439200000       3
     3652  3630  3632  3633    1  0.0000000000      0.5439200000       3
     3652  3630  3632  3634    1  0.0000000000      0.6508444444       3
     3652  3630  3632  3648    1  0.0000000000      2.1756800000       3
     3628  3630  3652  3650    1  0.0000000000      0.6508444444       3
     3628  3630  3652  3653    1  0.0000000000      0.6508444444       3
     3628  3630  3652  3654    1  0.0000000000      0.6508444444       3
     3631  3630  3652  3650    1  0.0000000000      0.5439200000       3
     3631  3630  3652  3653    1  0.0000000000      0.5020800000       3
     3631  3630  3652  3654    1  0.0000000000      0.5020800000       3
     3632  3630  3652  3650    1  0.0000000000      0.6508444444       3
     3632  3630  3652  3653    1  0.0000000000      0.6508444444       3
     3632  3630  3652  3654    1  0.0000000000      0.6508444444       3
     2154  2156  2158  2159    1  0.0000000000      0.5439200000       3
     2154  2156  2158  2166    1  0.0000000000      2.1756800000       3
     2157  2156  2158  2159    1  0.0000000000      0.5020800000       3
     2157  2156  2158  2166    1  0.0000000000      0.5439200000       3
     2169  2156  2158  2159    1  0.0000000000      0.6508444444       3
     2169  2156  2158  2166    1  0.0000000000      0.6508444444       3
     2154  2156  2169  2153    1  180.0000000000    1.0041600000       2
     2154  2156  2169  2170    1  180.0000000000    1.0041600000       2
     2157  2156  2169  2153    1  0.0000000000      0.0000000000       1
     2157  2156  2169  2170    1  0.0000000000      0.0000000000       1
     2158  2156  2169  2153    1  180.0000000000    1.0041600000       2
     2158  2156  2169  2170    1  180.0000000000    1.0041600000       2
     6428  6450  6451  6422    1  180.0000000000    15.1670000000      2
     6428  6450  6451  6452    1  180.0000000000    15.1670000000      2
     6485  6450  6451  6422    1  180.0000000000    15.1670000000      2
     6485  6450  6451  6452    1  180.0000000000    15.1670000000      2
     6428  6450  6485  6484    1  180.0000000000    15.1670000000      2
     6428  6450  6485  6486    1  180.0000000000    15.1670000000      2
     6451  6450  6485  6484    1  180.0000000000    15.1670000000      2
     6451  6450  6485  6486    1  180.0000000000    15.1670000000      2
     3694  3695  3697  3698    1  0.0000000000      0.6508444444       3
     3694  3695  3697  3699    1  0.0000000000      0.6508444444       3
     3694  3695  3697  3724    1  0.0000000000      0.6508444444       3
     3696  3695  3697  3698    1  0.0000000000      0.6508444444       3
     3696  3695  3697  3699    1  0.0000000000      0.6508444444       3
     3696  3695  3697  3724    1  0.0000000000      0.6508444444       3
     3719  3695  3697  3698    1  0.0000000000      0.6508444444       3
     3719  3695  3697  3699    1  0.0000000000      0.6508444444       3
     3719  3695  3697  3724    1  0.0000000000      0.6508444444       3
     3694  3695  3719  3717    1  0.0000000000      0.6508444444       3
     3694  3695  3719  3720    1  0.0000000000      0.6508444444       3
     3694  3695  3719  3721    1  0.0000000000      0.6508444444       3
     3696  3695  3719  3717    1  0.0000000000      0.5439200000       3
     3696  3695  3719  3720    1  0.0000000000      0.5020800000       3
     3696  3695  3719  3721    1  0.0000000000      0.5439200000       3
     3697  3695  3719  3717    1  0.0000000000      2.1756800000       3
     3697  3695  3719  3720    1  0.0000000000      0.5439200000       3
     3697  3695  3719  3721    1  0.0000000000      2.1756800000       3
     3694  3724  3725  3690    1  180.0000000000    15.1670000000      2
     3694  3724  3725  3726    1  180.0000000000    15.1670000000      2
     3697  3724  3725  3690    1  180.0000000000    15.1670000000      2
     3697  3724  3725  3726    1  180.0000000000    15.1670000000      2
     5833  5834  5836  5837    1  0.0000000000      0.6508444444       3
     5833  5834  5836  5838    1  0.0000000000      0.6508444444       3
     5833  5834  5836  5863    1  0.0000000000      0.6508444444       3
     5835  5834  5836  5837    1  0.0000000000      0.6508444444       3
     5835  5834  5836  5838    1  0.0000000000      0.6508444444       3
     5835  5834  5836  5863    1  0.0000000000      0.6508444444       3
     5858  5834  5836  5837    1  0.0000000000      0.6508444444       3
     5858  5834  5836  5838    1  0.0000000000      0.6508444444       3
     5858  5834  5836  5863    1  0.0000000000      0.6508444444       3
     5833  5834  5858  5856    1  0.0000000000      0.6508444444       3
     5833  5834  5858  5859    1  0.0000000000      0.6508444444       3
     5833  5834  5858  5860    1  0.0000000000      0.6508444444       3
     5835  5834  5858  5856    1  0.0000000000      0.5439200000       3
     5835  5834  5858  5859    1  0.0000000000      0.5020800000       3
     5835  5834  5858  5860    1  0.0000000000      0.5439200000       3
     5836  5834  5858  5856    1  0.0000000000      2.1756800000       3
     5836  5834  5858  5859    1  0.0000000000      0.5439200000       3
     5836  5834  5858  5860    1  0.0000000000      2.1756800000       3
     5834  5836  5838  5839    1  0.0000000000      0.5439200000       3
     5834  5836  5838  5840    1  0.0000000000      2.1756800000       3
     5834  5836  5838  5860    1  0.0000000000      2.1756800000       3
     5837  5836  5838  5839    1  0.0000000000      0.5020800000       3
     5837  5836  5838  5840    1  0.0000000000      0.5439200000       3
     5837  5836  5838  5860    1  0.0000000000      0.5439200000       3
     5863  5836  5838  5839    1  0.0000000000      0.6508444444       3
     5863  5836  5838  5840    1  0.0000000000      0.6508444444       3
     5863  5836  5838  5860    1  0.0000000000      0.6508444444       3
     5834  5836  5863  5833    1  180.0000000000    1.0041600000       2
     5834  5836  5863  5864    1  180.0000000000    1.0041600000       2
     5837  5836  5863  5833    1  0.0000000000      0.0000000000       1
     5837  5836  5863  5864    1  0.0000000000      0.0000000000       1
     5838  5836  5863  5833    1  180.0000000000    1.0041600000       2
     5838  5836  5863  5864    1  180.0000000000    1.0041600000       2
     6470  6465  6464  6477    1  180.0000000000    15.1670000000      2
     6464  6465  6466  6467    1  0.0000000000      0.0000000000       2
     6464  6465  6466  6468    1  0.0000000000      0.0000000000       2
     6464  6465  6466  6469    1  0.0000000000      0.0000000000       2
     6464  6465  6470  6471    1  180.0000000000    15.1670000000      2
     6466  6465  6470  6471    1  180.0000000000    15.1670000000      2
     6464  6465  6470  1679    1  180.0000000000    15.1670000000      2
     6466  6465  6470  1679    1  180.0000000000    15.1670000000      2
     6422  6451  6452  6453    1  180.0000000000    15.1670000000      2
     6422  6451  6452  6454    1  180.0000000000    15.1670000000      2
     6450  6451  6452  6453    1  180.0000000000    15.1670000000      2
     6450  6451  6452  6454    1  180.0000000000    15.1670000000      2
     6463  6464  6465  6466    1  180.0000000000    15.1670000000      2
     6463  6464  6465  6470    1  180.0000000000    15.1670000000      2
     6477  6464  6465  6466    1  180.0000000000    15.1670000000      2
     6463  6464  6477  6461    1  180.0000000000    1.0041600000       2
     6463  6464  6477  6478    1  0.0000000000      0.0000000000       1
     6463  6464  6477  6479    1  180.0000000000    1.0041600000       2
     6465  6464  6477  6461    1  180.0000000000    1.0041600000       2
     6465  6464  6477  6478    1  0.0000000000      0.0000000000       1
     6465  6464  6477  6479    1  180.0000000000    1.0041600000       2
     3662  3691  3692  3693    1  180.0000000000    15.1670000000      2
     3662  3691  3692  3694    1  180.0000000000    15.1670000000      2
     3690  3691  3692  3693    1  180.0000000000    15.1670000000      2
     3690  3691  3692  3694    1  180.0000000000    15.1670000000      2
     6459  6461  6463  6464    1  180.0000000000    1.0041600000       2
     6459  6461  6463  6472    1  180.0000000000    1.0041600000       2
     6462  6461  6463  6464    1  0.0000000000      0.0000000000       1
     6462  6461  6463  6472    1  0.0000000000      0.0000000000       1
     6477  6461  6463  6464    1  180.0000000000    1.0041600000       2
     6477  6461  6463  6472    1  180.0000000000    1.0041600000       2
     6459  6461  6477  6464    1  0.0000000000      0.6508444444       3
     6459  6461  6477  6478    1  0.0000000000      0.6508444444       3
     6459  6461  6477  6479    1  0.0000000000      0.6508444444       3
     6462  6461  6477  6464    1  0.0000000000      0.6508444444       3
     6462  6461  6477  6478    1  0.0000000000      0.6508444444       3
     6462  6461  6477  6479    1  0.0000000000      0.6508444444       3
     6463  6461  6477  6464    1  0.0000000000      0.6508444444       3
     6463  6461  6477  6478    1  0.0000000000      0.6508444444       3
     6463  6461  6477  6479    1  0.0000000000      0.6508444444       3
     3691  3692  3694  3695    1  180.0000000000    15.1670000000      2
     3691  3692  3694  3724    1  180.0000000000    15.1670000000      2
     3693  3692  3694  3695    1  180.0000000000    15.1670000000      2
     3693  3692  3694  3724    1  180.0000000000    15.1670000000      2
     6461  6463  6464  6465    1  180.0000000000    15.1670000000      2
     6461  6463  6464  6477    1  180.0000000000    15.1670000000      2
     6472  6463  6464  6465    1  180.0000000000    15.1670000000      2
     6472  6463  6464  6477    1  180.0000000000    15.1670000000      2
     6461  6463  6472  6473    1  180.0000000000    15.1670000000      2
     6464  6463  6472  6471    1  180.0000000000    15.1670000000      2
     6464  6463  6472  6473    1  180.0000000000    15.1670000000      2
     6461  6477  6479  6455    1  0.0000000000      2.1756800000       3
     6461  6477  6479  6480    1  0.0000000000      0.5439200000       3
     6461  6477  6479  6481    1  0.0000000000      2.1756800000       3
     6464  6477  6479  6455    1  0.0000000000      0.6508444444       3
     6464  6477  6479  6480    1  0.0000000000      0.6508444444       3
     6464  6477  6479  6481    1  0.0000000000      0.6508444444       3
     6478  6477  6479  6455    1  0.0000000000      0.5439200000       3
     6478  6477  6479  6480    1  0.0000000000      0.5020800000       3
     6478  6477  6479  6481    1  0.0000000000      0.5439200000       3
     6455  6479  6481  6459    1  0.0000000000      0.6508444444       3
     6455  6479  6481  6482    1  0.0000000000      0.6508444444       3
     6455  6479  6481  6483    1  0.0000000000      0.6508444444       3
     6477  6479  6481  6459    1  0.0000000000      0.6508444444       3
     6477  6479  6481  6482    1  0.0000000000      0.6508444444       3
     6477  6479  6481  6483    1  0.0000000000      0.6508444444       3
     6480  6479  6481  6459    1  0.0000000000      0.5439200000       3
     6480  6479  6481  6482    1  0.0000000000      0.5020800000       3
     6480  6479  6481  6483    1  0.0000000000      0.5020800000       3
     3638  3637  3636  3641    1  0.0000000000      0.0000000000       2
     3639  3637  3636  3641    1  0.0000000000      0.0000000000       2
     3640  3637  3636  3641    1  0.0000000000      0.0000000000       2
     3626  3650  3652  3630    1  0.0000000000      0.6508444444       3
     3626  3650  3652  3653    1  0.0000000000      0.6508444444       3
     3626  3650  3652  3654    1  0.0000000000      0.6508444444       3
     3648  3650  3652  3630    1  0.0000000000      0.6508444444       3
     3648  3650  3652  3653    1  0.0000000000      0.6508444444       3
     3648  3650  3652  3654    1  0.0000000000      0.6508444444       3
     3651  3650  3652  3630    1  0.0000000000      0.5439200000       3
     3651  3650  3652  3653    1  0.0000000000      0.5020800000       3
     3651  3650  3652  3654    1  0.0000000000      0.5020800000       3
     1506  1505  1504  1503    1  0.0000000000      0.0000000000       2
     1507  1505  1504  1503    1  0.0000000000      0.0000000000       2
     1508  1505  1504  1503    1  0.0000000000      0.0000000000       2
     5801  5806  5807  5808    1  180.0000000000    15.1670000000      2
     5801  5806  5807  5829    1  180.0000000000    15.1670000000      2
     5827  5806  5807  5808    1  180.0000000000    15.1670000000      2
     5827  5806  5807  5829    1  180.0000000000    15.1670000000      2
     5801  5806  5827  5826    1  180.0000000000    15.1670000000      2
     5801  5806  5827  5828    1  180.0000000000    15.1670000000      2
     5807  5806  5827  5826    1  180.0000000000    15.1670000000      2
     5807  5806  5827  5828    1  180.0000000000    15.1670000000      2
     5846  5845  5844  5849    1  0.0000000000      0.0000000000       2
     5847  5845  5844  5849    1  0.0000000000      0.0000000000       2
     5848  5845  5844  5849    1  0.0000000000      0.0000000000       2
     5798  5797  5801  5802    1  0.0000000000      0.5439200000       3
     5798  5797  5801  5806    1  0.0000000000      0.6508444444       3
     5798  5797  5801  5830    1  0.0000000000      0.6508444444       3
     5799  5797  5801  5802    1  0.0000000000      0.5439200000       3
     5799  5797  5801  5806    1  0.0000000000      0.6508444444       3
     5799  5797  5801  5830    1  0.0000000000      0.6508444444       3
     5800  5797  5801  5802    1  0.0000000000      0.5439200000       3
     5800  5797  5801  5806    1  0.0000000000      0.6508444444       3
     5800  5797  5801  5830    1  0.0000000000      0.6508444444       3
     5808  5810  5811  5812    1  0.0000000000      0.0000000000       1
     5808  5810  5811  5813    1  180.0000000000    1.0041600000       2
     5808  5810  5811  5821    1  180.0000000000    1.0041600000       2
     5826  5810  5811  5812    1  0.0000000000      0.0000000000       1
     5826  5810  5811  5813    1  180.0000000000    1.0041600000       2
     5826  5810  5811  5821    1  180.0000000000    1.0041600000       2
     5808  5810  5826  5813    1  180.0000000000    15.1670000000      2
     5808  5810  5826  5827    1  180.0000000000    15.1670000000      2
     5811  5810  5826  5813    1  180.0000000000    15.1670000000      2
     5811  5810  5826  5827    1  180.0000000000    15.1670000000      2
     5801  5830  5831  5832    1  180.0000000000    15.1670000000      2
     5801  5830  5831  5833    1  180.0000000000    15.1670000000      2
     5829  5830  5831  5832    1  180.0000000000    15.1670000000      2
     5829  5830  5831  5833    1  180.0000000000    15.1670000000      2
     3593  3598  3599  3600    1  180.0000000000    15.1670000000      2
     3593  3598  3599  3621    1  180.0000000000    15.1670000000      2
     3619  3598  3599  3600    1  180.0000000000    15.1670000000      2
     3619  3598  3599  3621    1  180.0000000000    15.1670000000      2
     3593  3598  3619  3618    1  180.0000000000    15.1670000000      2
     3593  3598  3619  3620    1  180.0000000000    15.1670000000      2
     3599  3598  3619  3618    1  180.0000000000    15.1670000000      2
     3599  3598  3619  3620    1  180.0000000000    15.1670000000      2
     5797  5801  5802  5803    1  0.0000000000      0.5439200000       3
     5797  5801  5802  5804    1  0.0000000000      0.5439200000       3
     5797  5801  5802  5805    1  0.0000000000      0.5439200000       3
     5806  5801  5802  5803    1  0.0000000000      0.6508444444       3
     5806  5801  5802  5804    1  0.0000000000      0.6508444444       3
     5806  5801  5802  5805    1  0.0000000000      0.6508444444       3
     5830  5801  5802  5803    1  0.0000000000      0.6508444444       3
     5830  5801  5802  5804    1  0.0000000000      0.6508444444       3
     5830  5801  5802  5805    1  0.0000000000      0.6508444444       3
     5797  5801  5806  5807    1  0.0000000000      0.0000000000       2
     5797  5801  5806  5827    1  180.0000000000    1.0041600000       2
     5802  5801  5806  5807    1  0.0000000000      0.0000000000       2
     5802  5801  5806  5827    1  180.0000000000    1.0041600000       2
     5830  5801  5806  5807    1  0.0000000000      0.0000000000       2
     5830  5801  5806  5827    1  180.0000000000    0.0000000000       2
     5797  5801  5830  5829    1  0.0000000000      0.0000000000       2
     5797  5801  5830  5831    1  180.0000000000    1.0041600000       2
     5802  5801  5830  5829    1  0.0000000000      0.0000000000       2
     5802  5801  5830  5831    1  180.0000000000    1.0041600000       2
     5806  5801  5830  5829    1  0.0000000000      0.0000000000       2
     5806  5801  5830  5831    1  180.0000000000    0.0000000000       2
     3589  3593  3594  3595    1  0.0000000000      0.5439200000       3
     3589  3593  3594  3596    1  0.0000000000      0.5439200000       3
     3589  3593  3594  3597    1  0.0000000000      0.5439200000       3
     3598  3593  3594  3595    1  0.0000000000      0.6508444444       3
     3598  3593  3594  3596    1  0.0000000000      0.6508444444       3
     3598  3593  3594  3597    1  0.0000000000      0.6508444444       3
     3622  3593  3594  3595    1  0.0000000000      0.6508444444       3
     3622  3593  3594  3596    1  0.0000000000      0.6508444444       3
     3622  3593  3594  3597    1  0.0000000000      0.6508444444       3
     3589  3593  3598  3599    1  0.0000000000      0.0000000000       2
     3589  3593  3598  3619    1  180.0000000000    1.0041600000       2
     3594  3593  3598  3599    1  0.0000000000      0.0000000000       2
     3594  3593  3598  3619    1  180.0000000000    1.0041600000       2
     3622  3593  3598  3599    1  0.0000000000      0.0000000000       2
     3622  3593  3598  3619    1  180.0000000000    0.0000000000       2
     3589  3593  3622  3621    1  0.0000000000      0.0000000000       2
     3589  3593  3622  3623    1  180.0000000000    1.0041600000       2
     3594  3593  3622  3621    1  0.0000000000      0.0000000000       2
     3594  3593  3622  3623    1  180.0000000000    1.0041600000       2
     3598  3593  3622  3621    1  0.0000000000      0.0000000000       2
     3598  3593  3622  3623    1  180.0000000000    0.0000000000       2
     5830  5831  5833  5834    1  180.0000000000    15.1670000000      2
     5830  5831  5833  5863    1  180.0000000000    15.1670000000      2
     5832  5831  5833  5834    1  180.0000000000    15.1670000000      2
     5832  5831  5833  5863    1  180.0000000000    15.1670000000      2
     3622  3623  3625  3626    1  180.0000000000    15.1670000000      2
     3622  3623  3625  3655    1  180.0000000000    15.1670000000      2
     3624  3623  3625  3626    1  180.0000000000    15.1670000000      2
     3624  3623  3625  3655    1  180.0000000000    15.1670000000      2
     5807  5808  5810  5811    1  180.0000000000    15.1670000000      2
     5807  5808  5810  5826    1  180.0000000000    15.1670000000      2
     5809  5808  5810  5811    1  180.0000000000    15.1670000000      2
     5809  5808  5810  5826    1  180.0000000000    15.1670000000      2
     5806  5807  5808  5809    1  180.0000000000    15.1670000000      2
     5806  5807  5808  5810    1  180.0000000000    15.1670000000      2
     5829  5807  5808  5809    1  180.0000000000    15.1670000000      2
     5829  5807  5808  5810    1  180.0000000000    15.1670000000      2
     5806  5807  5829  5830    1  180.0000000000    4.1840000000       2
     5806  5807  5829  5864    1  180.0000000000    4.1840000000       2
     5808  5807  5829  5830    1  180.0000000000    4.1840000000       2
     5808  5807  5829  5864    1  180.0000000000    4.1840000000       2
     3593  3622  3623  3624    1  180.0000000000    15.1670000000      2
     3593  3622  3623  3625    1  180.0000000000    15.1670000000      2
     3621  3622  3623  3624    1  180.0000000000    15.1670000000      2
     3621  3622  3623  3625    1  180.0000000000    15.1670000000      2
     3599  3621  3622  3593    1  180.0000000000    15.1670000000      2
     3599  3621  3622  3623    1  180.0000000000    15.1670000000      2
     3656  3621  3622  3593    1  180.0000000000    15.1670000000      2
     3656  3621  3622  3623    1  180.0000000000    15.1670000000      2
     3599  3621  3656  3655    1  180.0000000000    15.1670000000      2
     3599  3621  3656  3657    1  180.0000000000    15.1670000000      2
     3622  3621  3656  3655    1  180.0000000000    15.1670000000      2
     3622  3621  3656  3657    1  180.0000000000    15.1670000000      2
     5831  5833  5834  5835    1  0.0000000000      0.0000000000       1
     5831  5833  5834  5836    1  180.0000000000    1.0041600000       2
     5831  5833  5834  5858    1  180.0000000000    1.0041600000       2
     5863  5833  5834  5835    1  0.0000000000      0.0000000000       1
     5863  5833  5834  5836    1  180.0000000000    1.0041600000       2
     5863  5833  5834  5858    1  180.0000000000    1.0041600000       2
     5831  5833  5863  5836    1  180.0000000000    15.1670000000      2
     5831  5833  5863  5864    1  180.0000000000    15.1670000000      2
     5834  5833  5863  5836    1  180.0000000000    15.1670000000      2
     5834  5833  5863  5864    1  180.0000000000    15.1670000000      2
     5833  5863  5864  5829    1  180.0000000000    15.1670000000      2
     5833  5863  5864  5865    1  180.0000000000    15.1670000000      2
     5836  5863  5864  5829    1  180.0000000000    15.1670000000      2
     5836  5863  5864  5865    1  180.0000000000    15.1670000000      2
     3590  3589  3593  3594    1  0.0000000000      0.5439200000       3
     3590  3589  3593  3598    1  0.0000000000      0.6508444444       3
     3590  3589  3593  3622    1  0.0000000000      0.6508444444       3
     3591  3589  3593  3594    1  0.0000000000      0.5439200000       3
     3591  3589  3593  3598    1  0.0000000000      0.6508444444       3
     3591  3589  3593  3622    1  0.0000000000      0.6508444444       3
     3592  3589  3593  3594    1  0.0000000000      0.5439200000       3
     3592  3589  3593  3598    1  0.0000000000      0.6508444444       3
     3592  3589  3593  3622    1  0.0000000000      0.6508444444       3
     3625  3626  3628  3629    1  0.0000000000      0.6508444444       3
     3625  3626  3628  3630    1  0.0000000000      0.6508444444       3
     3625  3626  3628  3655    1  0.0000000000      0.6508444444       3
     3627  3626  3628  3629    1  0.0000000000      0.6508444444       3
     3627  3626  3628  3630    1  0.0000000000      0.6508444444       3
     3627  3626  3628  3655    1  0.0000000000      0.6508444444       3
     3650  3626  3628  3629    1  0.0000000000      0.6508444444       3
     3650  3626  3628  3630    1  0.0000000000      0.6508444444       3
     3650  3626  3628  3655    1  0.0000000000      0.6508444444       3
     3625  3626  3650  3648    1  0.0000000000      0.6508444444       3
     3625  3626  3650  3651    1  0.0000000000      0.6508444444       3
     3625  3626  3650  3652    1  0.0000000000      0.6508444444       3
     3627  3626  3650  3648    1  0.0000000000      0.5439200000       3
     3627  3626  3650  3651    1  0.0000000000      0.5020800000       3
     3627  3626  3650  3652    1  0.0000000000      0.5439200000       3
     3628  3626  3650  3648    1  0.0000000000      2.1756800000       3
     3628  3626  3650  3651    1  0.0000000000      0.5439200000       3
     3628  3626  3650  3652    1  0.0000000000      2.1756800000       3
     3625  3655  3656  3621    1  180.0000000000    15.1670000000      2
     3625  3655  3656  3657    1  180.0000000000    15.1670000000      2
     3628  3655  3656  3621    1  180.0000000000    15.1670000000      2
     3628  3655  3656  3657    1  180.0000000000    15.1670000000      2
     5807  5829  5830  5801    1  180.0000000000    15.1670000000      2
     5807  5829  5830  5831    1  180.0000000000    15.1670000000      2
     5864  5829  5830  5801    1  180.0000000000    15.1670000000      2
     5864  5829  5830  5831    1  180.0000000000    15.1670000000      2
     5807  5829  5864  5863    1  180.0000000000    15.1670000000      2
     5807  5829  5864  5865    1  180.0000000000    15.1670000000      2
     5830  5829  5864  5863    1  180.0000000000    15.1670000000      2
     5830  5829  5864  5865    1  180.0000000000    15.1670000000      2
     3626  3628  3630  3631    1  0.0000000000      0.5439200000       3
     3626  3628  3630  3632    1  0.0000000000      2.1756800000       3
     3626  3628  3630  3652    1  0.0000000000      2.1756800000       3
     3629  3628  3630  3631    1  0.0000000000      0.5020800000       3
     3629  3628  3630  3632    1  0.0000000000      0.5439200000       3
     3629  3628  3630  3652    1  0.0000000000      0.5439200000       3
     3655  3628  3630  3631    1  0.0000000000      0.6508444444       3
     3655  3628  3630  3632    1  0.0000000000      0.6508444444       3
     3655  3628  3630  3652    1  0.0000000000      0.6508444444       3
     3626  3628  3655  3625    1  180.0000000000    1.0041600000       2
     3626  3628  3655  3656    1  180.0000000000    1.0041600000       2
     3629  3628  3655  3625    1  0.0000000000      0.0000000000       1
     3629  3628  3655  3656    1  0.0000000000      0.0000000000       1
     3630  3628  3655  3625    1  180.0000000000    1.0041600000       2
     3630  3628  3655  3656    1  180.0000000000    1.0041600000       2
     3623  3625  3626  3627    1  0.0000000000      0.0000000000       1
     3623  3625  3626  3628    1  180.0000000000    1.0041600000       2
     3623  3625  3626  3650    1  180.0000000000    1.0041600000       2
     3655  3625  3626  3627    1  0.0000000000      0.0000000000       1
     3655  3625  3626  3628    1  180.0000000000    1.0041600000       2
     3655  3625  3626  3650    1  180.0000000000    1.0041600000       2
     3623  3625  3655  3628    1  180.0000000000    15.1670000000      2
     3623  3625  3655  3656    1  180.0000000000    15.1670000000      2
     3626  3625  3655  3628    1  180.0000000000    15.1670000000      2
     3626  3625  3655  3656    1  180.0000000000    15.1670000000      2
     3598  3599  3600  3601    1  180.0000000000    15.1670000000      2
     3598  3599  3600  3602    1  180.0000000000    15.1670000000      2
     3621  3599  3600  3601    1  180.0000000000    15.1670000000      2
     3621  3599  3600  3602    1  180.0000000000    15.1670000000      2
     3598  3599  3621  3622    1  180.0000000000    4.1840000000       2
     3598  3599  3621  3656    1  180.0000000000    4.1840000000       2
     3600  3599  3621  3622    1  180.0000000000    4.1840000000       2
     3600  3599  3621  3656    1  180.0000000000    4.1840000000       2
     6004  6008  6009  6010    1  0.0000000000      0.5439200000       3
     6004  6008  6009  6011    1  0.0000000000      0.5439200000       3
     6004  6008  6009  6012    1  0.0000000000      0.5439200000       3
     6013  6008  6009  6010    1  0.0000000000      0.6508444444       3
     6013  6008  6009  6011    1  0.0000000000      0.6508444444       3
     6013  6008  6009  6012    1  0.0000000000      0.6508444444       3
     6037  6008  6009  6010    1  0.0000000000      0.6508444444       3
     6037  6008  6009  6011    1  0.0000000000      0.6508444444       3
     6037  6008  6009  6012    1  0.0000000000      0.6508444444       3
     6004  6008  6013  6014    1  0.0000000000      0.0000000000       2
     6004  6008  6013  6034    1  180.0000000000    1.0041600000       2
     6009  6008  6013  6014    1  0.0000000000      0.0000000000       2
     6009  6008  6013  6034    1  180.0000000000    1.0041600000       2
     6037  6008  6013  6014    1  0.0000000000      0.0000000000       2
     6037  6008  6013  6034    1  180.0000000000    0.0000000000       2
     6004  6008  6037  6036    1  0.0000000000      0.0000000000       2
     6004  6008  6037  6038    1  180.0000000000    1.0041600000       2
     6009  6008  6037  6036    1  0.0000000000      0.0000000000       2
     6009  6008  6037  6038    1  180.0000000000    1.0041600000       2
     6013  6008  6037  6036    1  0.0000000000      0.0000000000       2
     6013  6008  6037  6038    1  180.0000000000    0.0000000000       2
     4661  4685  4687  4665    1  0.0000000000      0.6508444444       3
     4661  4685  4687  4688    1  0.0000000000      0.6508444444       3
     4661  4685  4687  4689    1  0.0000000000      0.6508444444       3
     4683  4685  4687  4665    1  0.0000000000      0.6508444444       3
     4683  4685  4687  4688    1  0.0000000000      0.6508444444       3
     4683  4685  4687  4689    1  0.0000000000      0.6508444444       3
     4686  4685  4687  4665    1  0.0000000000      0.5439200000       3
     4686  4685  4687  4688    1  0.0000000000      0.5020800000       3
     4686  4685  4687  4689    1  0.0000000000      0.5020800000       3
     6005  6004  6008  6009    1  0.0000000000      0.5439200000       3
     6005  6004  6008  6013    1  0.0000000000      0.6508444444       3
     6005  6004  6008  6037    1  0.0000000000      0.6508444444       3
     6006  6004  6008  6009    1  0.0000000000      0.5439200000       3
     6006  6004  6008  6013    1  0.0000000000      0.6508444444       3
     6006  6004  6008  6037    1  0.0000000000      0.6508444444       3
     6007  6004  6008  6009    1  0.0000000000      0.5439200000       3
     6007  6004  6008  6013    1  0.0000000000      0.6508444444       3
     6007  6004  6008  6037    1  0.0000000000      0.6508444444       3
     4335  4334  4333  4332    1  0.0000000000      0.0000000000       2
     4336  4334  4333  4332    1  0.0000000000      0.0000000000       2
     4337  4334  4333  4332    1  0.0000000000      0.0000000000       2
     3697  3699  3701  3702    1  0.0000000000      0.5439200000       3
     3697  3699  3701  3703    1  0.0000000000      0.6508444444       3
     3697  3699  3701  3717    1  0.0000000000      2.1756800000       3
     3700  3699  3701  3702    1  0.0000000000      0.5020800000       3
     3700  3699  3701  3703    1  0.0000000000      0.6508444444       3
     3700  3699  3701  3717    1  0.0000000000      0.5439200000       3
     3721  3699  3701  3702    1  0.0000000000      0.5439200000       3
     3721  3699  3701  3703    1  0.0000000000      0.6508444444       3
     3721  3699  3701  3717    1  0.0000000000      2.1756800000       3
     3697  3699  3721  3719    1  0.0000000000      0.6508444444       3
     3697  3699  3721  3722    1  0.0000000000      0.6508444444       3
     3697  3699  3721  3723    1  0.0000000000      0.6508444444       3
     3700  3699  3721  3719    1  0.0000000000      0.5439200000       3
     3700  3699  3721  3722    1  0.0000000000      0.5020800000       3
     3700  3699  3721  3723    1  0.0000000000      0.5020800000       3
     3701  3699  3721  3719    1  0.0000000000      0.6508444444       3
     3701  3699  3721  3722    1  0.0000000000      0.6508444444       3
     3701  3699  3721  3723    1  0.0000000000      0.6508444444       3
     6008  6013  6014  6015    1  180.0000000000    15.1670000000      2
     6008  6013  6014  6036    1  180.0000000000    15.1670000000      2
     6034  6013  6014  6015    1  180.0000000000    15.1670000000      2
     6034  6013  6014  6036    1  180.0000000000    15.1670000000      2
     6008  6013  6034  6033    1  180.0000000000    15.1670000000      2
     6008  6013  6034  6035    1  180.0000000000    15.1670000000      2
     6014  6013  6034  6033    1  180.0000000000    15.1670000000      2
     6014  6013  6034  6035    1  180.0000000000    15.1670000000      2
     4663  4665  4667  4668    1  0.0000000000      0.5439200000       3
     4663  4665  4667  4669    1  0.0000000000      0.6508444444       3
     4663  4665  4667  4683    1  0.0000000000      2.1756800000       3
     4666  4665  4667  4668    1  0.0000000000      0.5020800000       3
     4666  4665  4667  4669    1  0.0000000000      0.6508444444       3
     4666  4665  4667  4683    1  0.0000000000      0.5439200000       3
     4687  4665  4667  4668    1  0.0000000000      0.5439200000       3
     4687  4665  4667  4669    1  0.0000000000      0.6508444444       3
     4687  4665  4667  4683    1  0.0000000000      2.1756800000       3
     4663  4665  4687  4685    1  0.0000000000      0.6508444444       3
     4663  4665  4687  4688    1  0.0000000000      0.6508444444       3
     4663  4665  4687  4689    1  0.0000000000      0.6508444444       3
     4666  4665  4687  4685    1  0.0000000000      0.5439200000       3
     4666  4665  4687  4688    1  0.0000000000      0.5020800000       3
     4666  4665  4687  4689    1  0.0000000000      0.5020800000       3
     4667  4665  4687  4685    1  0.0000000000      0.6508444444       3
     4667  4665  4687  4688    1  0.0000000000      0.6508444444       3
     4667  4665  4687  4689    1  0.0000000000      0.6508444444       3
     3704  3705  3706  3707    1  0.0000000000      0.0000000000       2
     3704  3705  3706  3708    1  0.0000000000      0.0000000000       2
     3704  3705  3706  3709    1  0.0000000000      0.0000000000       2
     3704  3705  3710  3711    1  180.0000000000    15.1670000000      2
     3706  3705  3710  3711    1  180.0000000000    15.1670000000      2
     3710  3705  3704  3717    1  180.0000000000    15.1670000000      2
     3706  3705  3710  5474    1  180.0000000000    15.1670000000      2
     3704  3705  3710  5474    1  180.0000000000    15.1670000000      2
     5470  5472  5474  5475    1  0.0000000000      0.6508444444       3
     5470  5472  5474  5476    1  0.0000000000      0.6508444444       3
     5473  5472  5474  5475    1  0.0000000000      0.6508444444       3
     3711  5472  5474  5475    1  0.0000000000      0.6508444444       3
     3711  5472  5474  3710    1  0.0000000000      0.6508444444       3
     5470  5472  5474  3710    1  0.0000000000      0.6508444444       3
     3705  3710  3711  3712    1  180.0000000000    15.1670000000      2
     3705  3710  3711  5472    1  180.0000000000    15.1670000000      2
     3705  3710  5474  5475    1  0.0000000000      0.0000000000       1
     3711  3710  5474  5475    1  0.0000000000      0.0000000000       1
     3705  3710  5474  5476    1  180.0000000000    1.0041600000       2
     3711  3710  5474  5476    1  180.0000000000    1.0041600000       2
     3705  3710  5474  5472    1  180.0000000000    1.0041600000       2
     3711  3710  5474  5472    1  180.0000000000    1.0041600000       2
     4667  4683  4685  4661    1  0.0000000000      2.1756800000       3
     4667  4683  4685  4686    1  0.0000000000      0.5439200000       3
     4667  4683  4685  4687    1  0.0000000000      2.1756800000       3
     4670  4683  4685  4661    1  0.0000000000      0.6508444444       3
     4670  4683  4685  4686    1  0.0000000000      0.6508444444       3
     4670  4683  4685  4687    1  0.0000000000      0.6508444444       3
     4684  4683  4685  4661    1  0.0000000000      0.5439200000       3
     4684  4683  4685  4686    1  0.0000000000      0.5020800000       3
     4684  4683  4685  4687    1  0.0000000000      0.5439200000       3
     4660  4661  4663  4664    1  0.0000000000      0.6508444444       3
     4660  4661  4663  4665    1  0.0000000000      0.6508444444       3
     4660  4661  4663  4690    1  0.0000000000      0.6508444444       3
     4662  4661  4663  4664    1  0.0000000000      0.6508444444       3
     4662  4661  4663  4665    1  0.0000000000      0.6508444444       3
     4662  4661  4663  4690    1  0.0000000000      0.6508444444       3
     4685  4661  4663  4664    1  0.0000000000      0.6508444444       3
     4685  4661  4663  4665    1  0.0000000000      0.6508444444       3
     4685  4661  4663  4690    1  0.0000000000      0.6508444444       3
     4660  4661  4685  4683    1  0.0000000000      0.6508444444       3
     4660  4661  4685  4686    1  0.0000000000      0.6508444444       3
     4660  4661  4685  4687    1  0.0000000000      0.6508444444       3
     4662  4661  4685  4683    1  0.0000000000      0.5439200000       3
     4662  4661  4685  4686    1  0.0000000000      0.5020800000       3
     4662  4661  4685  4687    1  0.0000000000      0.5439200000       3
     4663  4661  4685  4683    1  0.0000000000      2.1756800000       3
     4663  4661  4685  4686    1  0.0000000000      0.5439200000       3
     4663  4661  4685  4687    1  0.0000000000      2.1756800000       3
     6008  6037  6038  6039    1  180.0000000000    15.1670000000      2
     6008  6037  6038  6040    1  180.0000000000    15.1670000000      2
     6036  6037  6038  6039    1  180.0000000000    15.1670000000      2
     6036  6037  6038  6040    1  180.0000000000    15.1670000000      2
     4661  4663  4665  4666    1  0.0000000000      0.5439200000       3
     4661  4663  4665  4667    1  0.0000000000      2.1756800000       3
     4661  4663  4665  4687    1  0.0000000000      2.1756800000       3
     4664  4663  4665  4666    1  0.0000000000      0.5020800000       3
     4664  4663  4665  4667    1  0.0000000000      0.5439200000       3
     4664  4663  4665  4687    1  0.0000000000      0.5439200000       3
     4690  4663  4665  4666    1  0.0000000000      0.6508444444       3
     4690  4663  4665  4667    1  0.0000000000      0.6508444444       3
     4690  4663  4665  4687    1  0.0000000000      0.6508444444       3
     4661  4663  4690  4660    1  180.0000000000    1.0041600000       2
     4661  4663  4690  4691    1  180.0000000000    1.0041600000       2
     4664  4663  4690  4660    1  0.0000000000      0.0000000000       1
     4664  4663  4690  4691    1  0.0000000000      0.0000000000       1
     4665  4663  4690  4660    1  180.0000000000    1.0041600000       2
     4665  4663  4690  4691    1  180.0000000000    1.0041600000       2
     4665  4667  4669  4670    1  180.0000000000    1.0041600000       2
     4665  4667  4669  4678    1  180.0000000000    1.0041600000       2
     4668  4667  4669  4670    1  0.0000000000      0.0000000000       1
     4668  4667  4669  4678    1  0.0000000000      0.0000000000       1
     4683  4667  4669  4670    1  180.0000000000    1.0041600000       2
     4683  4667  4669  4678    1  180.0000000000    1.0041600000       2
     4665  4667  4683  4670    1  0.0000000000      0.6508444444       3
     4665  4667  4683  4684    1  0.0000000000      0.6508444444       3
     4665  4667  4683  4685    1  0.0000000000      0.6508444444       3
     4668  4667  4683  4670    1  0.0000000000      0.6508444444       3
     4668  4667  4683  4684    1  0.0000000000      0.6508444444       3
     4668  4667  4683  4685    1  0.0000000000      0.6508444444       3
     4669  4667  4683  4670    1  0.0000000000      0.6508444444       3
     4669  4667  4683  4684    1  0.0000000000      0.6508444444       3
     4669  4667  4683  4685    1  0.0000000000      0.6508444444       3
     3703  3704  3705  3706    1  180.0000000000    15.1670000000      2
     3703  3704  3705  3710    1  180.0000000000    15.1670000000      2
     3717  3704  3705  3706    1  180.0000000000    15.1670000000      2
     3703  3704  3717  3701    1  180.0000000000    1.0041600000       2
     3703  3704  3717  3718    1  0.0000000000      0.0000000000       1
     3703  3704  3717  3719    1  180.0000000000    1.0041600000       2
     3705  3704  3717  3701    1  180.0000000000    1.0041600000       2
     3705  3704  3717  3718    1  0.0000000000      0.0000000000       1
     3705  3704  3717  3719    1  180.0000000000    1.0041600000       2
     3710  3711  3712  3703    1  180.0000000000    15.1670000000      2
     5472  3711  3710  5474    1  180.0000000000    15.1670000000      2
     3710  3711  5472  5470    1  180.0000000000    1.0041600000       2
     3712  3711  5472  5470    1  180.0000000000    1.0041600000       2
     3710  3711  5472  5473    1  0.0000000000      0.0000000000       1
     3712  3711  5472  5473    1  0.0000000000      0.0000000000       1
     3710  3711  5472  5474    1  180.0000000000    1.0041600000       2
     3712  3711  5472  5474    1  180.0000000000    1.0041600000       2
     3712  3711  3710  5474    1  180.0000000000    15.1670000000      2
     5025  5024  5023  5022    1  0.0000000000      0.0000000000       2
     5026  5024  5023  5022    1  0.0000000000      0.0000000000       2
     5027  5024  5023  5022    1  0.0000000000      0.0000000000       2
     3701  3717  3719  3695    1  0.0000000000      2.1756800000       3
     3701  3717  3719  3720    1  0.0000000000      0.5439200000       3
     3701  3717  3719  3721    1  0.0000000000      2.1756800000       3
     3704  3717  3719  3695    1  0.0000000000      0.6508444444       3
     3704  3717  3719  3720    1  0.0000000000      0.6508444444       3
     3704  3717  3719  3721    1  0.0000000000      0.6508444444       3
     3718  3717  3719  3695    1  0.0000000000      0.5439200000       3
     3718  3717  3719  3720    1  0.0000000000      0.5020800000       3
     3718  3717  3719  3721    1  0.0000000000      0.5439200000       3
     6037  6038  6040  6041    1  180.0000000000    15.1670000000      2
     6037  6038  6040  6070    1  180.0000000000    15.1670000000      2
     6039  6038  6040  6041    1  180.0000000000    15.1670000000      2
     6039  6038  6040  6070    1  180.0000000000    15.1670000000      2
     3699  3701  3703  3704    1  180.0000000000    1.0041600000       2
     3699  3701  3703  3712    1  180.0000000000    1.0041600000       2
     3702  3701  3703  3704    1  0.0000000000      0.0000000000       1
     3702  3701  3703  3712    1  0.0000000000      0.0000000000       1
     3717  3701  3703  3704    1  180.0000000000    1.0041600000       2
     3717  3701  3703  3712    1  180.0000000000    1.0041600000       2
     3699  3701  3717  3704    1  0.0000000000      0.6508444444       3
     3699  3701  3717  3718    1  0.0000000000      0.6508444444       3
     3699  3701  3717  3719    1  0.0000000000      0.6508444444       3
     3702  3701  3717  3704    1  0.0000000000      0.6508444444       3
     3702  3701  3717  3718    1  0.0000000000      0.6508444444       3
     3702  3701  3717  3719    1  0.0000000000      0.6508444444       3
     3703  3701  3717  3704    1  0.0000000000      0.6508444444       3
     3703  3701  3717  3718    1  0.0000000000      0.6508444444       3
     3703  3701  3717  3719    1  0.0000000000      0.6508444444       3
     6013  6014  6015  6016    1  180.0000000000    15.1670000000      2
     6013  6014  6015  6017    1  180.0000000000    15.1670000000      2
     6036  6014  6015  6016    1  180.0000000000    15.1670000000      2
     6036  6014  6015  6017    1  180.0000000000    15.1670000000      2
     6013  6014  6036  6037    1  180.0000000000    4.1840000000       2
     6013  6014  6036  6071    1  180.0000000000    4.1840000000       2
     6015  6014  6036  6037    1  180.0000000000    4.1840000000       2
     6015  6014  6036  6071    1  180.0000000000    4.1840000000       2
     4669  4670  4671  4672    1  180.0000000000    15.1670000000      2
     4669  4670  4671  4676    1  180.0000000000    15.1670000000      2
     4683  4670  4671  4672    1  180.0000000000    15.1670000000      2
     4669  4670  4683  4667    1  180.0000000000    1.0041600000       2
     4669  4670  4683  4684    1  0.0000000000      0.0000000000       1
     4669  4670  4683  4685    1  180.0000000000    1.0041600000       2
     4671  4670  4683  4667    1  180.0000000000    1.0041600000       2
     4671  4670  4683  4684    1  0.0000000000      0.0000000000       1
     4671  4670  4683  4685    1  180.0000000000    1.0041600000       2
     6015  6017  6018  6019    1  0.0000000000      0.0000000000       1
     6015  6017  6018  6020    1  180.0000000000    1.0041600000       2
     6015  6017  6018  6028    1  180.0000000000    1.0041600000       2
     6033  6017  6018  6019    1  0.0000000000      0.0000000000       1
     6033  6017  6018  6020    1  180.0000000000    1.0041600000       2
     6033  6017  6018  6028    1  180.0000000000    1.0041600000       2
     6015  6017  6033  6020    1  180.0000000000    15.1670000000      2
     6015  6017  6033  6034    1  180.0000000000    15.1670000000      2
     6018  6017  6033  6020    1  180.0000000000    15.1670000000      2
     6018  6017  6033  6034    1  180.0000000000    15.1670000000      2
     6017  6033  6034  6013    1  180.0000000000    15.1670000000      2
     6017  6033  6034  6035    1  180.0000000000    15.1670000000      2
     6020  6033  6034  6013    1  180.0000000000    15.1670000000      2
     6020  6033  6034  6035    1  180.0000000000    15.1670000000      2
     3711  3712  3703  3701    1  180.0000000000    15.1670000000      2
     3703  3712  3713  3714    1  0.0000000000      0.0000000000       2
     3703  3712  3713  3715    1  0.0000000000      0.0000000000       2
     3703  3712  3713  3716    1  0.0000000000      0.0000000000       2
     3713  3712  3711  3710    1  180.0000000000    15.1670000000      2
     3703  3712  3711  5472    1  180.0000000000    15.1670000000      2
     3713  3712  3711  5472    1  180.0000000000    15.1670000000      2
     3695  3697  3699  3700    1  0.0000000000      0.5439200000       3
     3695  3697  3699  3701    1  0.0000000000      2.1756800000       3
     3695  3697  3699  3721    1  0.0000000000      2.1756800000       3
     3698  3697  3699  3700    1  0.0000000000      0.5020800000       3
     3698  3697  3699  3701    1  0.0000000000      0.5439200000       3
     3698  3697  3699  3721    1  0.0000000000      0.5439200000       3
     3724  3697  3699  3700    1  0.0000000000      0.6508444444       3
     3724  3697  3699  3701    1  0.0000000000      0.6508444444       3
     3724  3697  3699  3721    1  0.0000000000      0.6508444444       3
     3695  3697  3724  3694    1  180.0000000000    1.0041600000       2
     3695  3697  3724  3725    1  180.0000000000    1.0041600000       2
     3698  3697  3724  3694    1  0.0000000000      0.0000000000       1
     3698  3697  3724  3725    1  0.0000000000      0.0000000000       1
     3699  3697  3724  3694    1  180.0000000000    1.0041600000       2
     3699  3697  3724  3725    1  180.0000000000    1.0041600000       2
     4334  4333  4332  4331    1  180.0000000000    15.1670000000      2
     4332  4333  4324  4322    1  180.0000000000    15.1670000000      2
     4324  4333  4334  4335    1  0.0000000000      0.0000000000       2
     4324  4333  4334  4336    1  0.0000000000      0.0000000000       2
     4324  4333  4334  4337    1  0.0000000000      0.0000000000       2
     4324  4333  4332  4991    1  180.0000000000    15.1670000000      2
     4334  4333  4332  4991    1  180.0000000000    15.1670000000      2
     4667  4669  4670  4671    1  180.0000000000    15.1670000000      2
     4667  4669  4670  4683    1  180.0000000000    15.1670000000      2
     4678  4669  4670  4671    1  180.0000000000    15.1670000000      2
     4678  4669  4670  4683    1  180.0000000000    15.1670000000      2
     4667  4669  4678  4679    1  180.0000000000    15.1670000000      2
     4670  4669  4678  4677    1  180.0000000000    15.1670000000      2
     4670  4669  4678  4679    1  180.0000000000    15.1670000000      2
     5476  5474  5472  5473    1  0.0000000000      0.6508444444       3
     5476  5474  5472  3711    1  0.0000000000      0.6508444444       3
     3710  5474  5472  5473    1  0.0000000000      0.6508444444       3
     3701  3703  3704  3705    1  180.0000000000    15.1670000000      2
     3701  3703  3704  3717    1  180.0000000000    15.1670000000      2
     3712  3703  3704  3705    1  180.0000000000    15.1670000000      2
     3712  3703  3704  3717    1  180.0000000000    15.1670000000      2
     3701  3703  3712  3713    1  180.0000000000    15.1670000000      2
     3704  3703  3712  3711    1  180.0000000000    15.1670000000      2
     3704  3703  3712  3713    1  180.0000000000    15.1670000000      2
     4673  4672  4671  4676    1  0.0000000000      0.0000000000       2
     4674  4672  4671  4676    1  0.0000000000      0.0000000000       2
     4675  4672  4671  4676    1  0.0000000000      0.0000000000       2
     3707  3706  3705  3710    1  0.0000000000      0.0000000000       2
     3708  3706  3705  3710    1  0.0000000000      0.0000000000       2
     3709  3706  3705  3710    1  0.0000000000      0.0000000000       2
     4670  4671  4672  4673    1  0.0000000000      0.0000000000       2
     4670  4671  4672  4674    1  0.0000000000      0.0000000000       2
     4670  4671  4672  4675    1  0.0000000000      0.0000000000       2
     4670  4671  4676  4677    1  180.0000000000    15.1670000000      2
     4672  4671  4676  4677    1  180.0000000000    15.1670000000      2
     4676  4671  4670  4683    1  180.0000000000    15.1670000000      2
     4672  4671  4676  1263    1  180.0000000000    15.1670000000      2
     4670  4671  4676  1263    1  180.0000000000    15.1670000000      2
     3695  3719  3721  3699    1  0.0000000000      0.6508444444       3
     3695  3719  3721  3722    1  0.0000000000      0.6508444444       3
     3695  3719  3721  3723    1  0.0000000000      0.6508444444       3
     3717  3719  3721  3699    1  0.0000000000      0.6508444444       3
     3717  3719  3721  3722    1  0.0000000000      0.6508444444       3
     3717  3719  3721  3723    1  0.0000000000      0.6508444444       3
     3720  3719  3721  3699    1  0.0000000000      0.5439200000       3
     3720  3719  3721  3722    1  0.0000000000      0.5020800000       3
     3720  3719  3721  3723    1  0.0000000000      0.5020800000       3
     4658  4660  4661  4662    1  0.0000000000      0.0000000000       1
     4658  4660  4661  4663    1  180.0000000000    1.0041600000       2
     4658  4660  4661  4685    1  180.0000000000    1.0041600000       2
     4690  4660  4661  4662    1  0.0000000000      0.0000000000       1
     4690  4660  4661  4663    1  180.0000000000    1.0041600000       2
     4690  4660  4661  4685    1  180.0000000000    1.0041600000       2
     4658  4660  4690  4663    1  180.0000000000    15.1670000000      2
     4658  4660  4690  4691    1  180.0000000000    15.1670000000      2
     4661  4660  4690  4663    1  180.0000000000    15.1670000000      2
     4661  4660  4690  4691    1  180.0000000000    15.1670000000      2
     6229  6231  6233  6234    1  0.0000000000      0.6508444444       3
     6229  6231  6233  6235    1  0.0000000000      0.6508444444       3
     6232  6231  6233  6234    1  0.0000000000      0.6508444444       3
     1503  6231  6233  6234    1  0.0000000000      0.6508444444       3
     1503  6231  6233  1502    1  0.0000000000      0.6508444444       3
     6229  6231  6233  1502    1  0.0000000000      0.6508444444       3
     4657  4658  4660  4661    1  180.0000000000    15.1670000000      2
     4657  4658  4660  4690    1  180.0000000000    15.1670000000      2
     4659  4658  4660  4661    1  180.0000000000    15.1670000000      2
     4659  4658  4660  4690    1  180.0000000000    15.1670000000      2
     6224  6240  6241  6220    1  180.0000000000    15.1670000000      2
     6224  6240  6241  6242    1  180.0000000000    15.1670000000      2
     6227  6240  6241  6220    1  180.0000000000    15.1670000000      2
     6227  6240  6241  6242    1  180.0000000000    15.1670000000      2
     6225  6235  6237  6229    1  0.0000000000      0.6508444444       3
     6225  6235  6237  6238    1  0.0000000000      0.6508444444       3
     6225  6235  6237  6239    1  0.0000000000      0.6508444444       3
     6233  6235  6237  6238    1  0.0000000000      0.6508444444       3
     6233  6235  6237  6239    1  0.0000000000      0.6508444444       3
     6236  6235  6237  6229    1  0.0000000000      0.5439200000       3
     6236  6235  6237  6238    1  0.0000000000      0.5020800000       3
     6236  6235  6237  6239    1  0.0000000000      0.5020800000       3
     6225  6235  6233  6231    1  0.0000000000      2.1756800000       3
     6236  6235  6233  6231    1  0.0000000000      0.5439200000       3
     6237  6235  6233  6231    1  0.0000000000      2.1756800000       3
     6225  6235  6233  6234    1  0.0000000000      0.5439200000       3
     6236  6235  6233  6234    1  0.0000000000      0.5020800000       3
     6237  6235  6233  6234    1  0.0000000000      0.5439200000       3
     6233  6235  6225  6224    1  0.0000000000      0.6508444444       3
     6233  6235  6225  6226    1  0.0000000000      0.5439200000       3
     6233  6235  6225  6227    1  0.0000000000      2.1756800000       3
     6236  6235  6233  1502    1  0.0000000000      0.6508444444       3
     6237  6235  6233  1502    1  0.0000000000      0.6508444444       3
     6225  6235  6233  1502    1  0.0000000000      0.6508444444       3
     1505  1504  1503  1502    1  180.0000000000    15.1670000000      2
     1503  1504  1495  1493    1  180.0000000000    15.1670000000      2
     1495  1504  1505  1506    1  0.0000000000      0.0000000000       2
     1495  1504  1505  1507    1  0.0000000000      0.0000000000       2
     1495  1504  1505  1508    1  0.0000000000      0.0000000000       2
     1495  1504  1503  6231    1  180.0000000000    15.1670000000      2
     1505  1504  1503  6231    1  180.0000000000    15.1670000000      2
     4637  4653  4654  4633    1  180.0000000000    15.1670000000      2
     4637  4653  4654  4655    1  180.0000000000    15.1670000000      2
     4640  4653  4654  4633    1  180.0000000000    15.1670000000      2
     4640  4653  4654  4655    1  180.0000000000    15.1670000000      2
     1464  1466  1468  1469    1  0.0000000000      0.5439200000       3
     1464  1466  1468  1476    1  0.0000000000      2.1756800000       3
     1467  1466  1468  1469    1  0.0000000000      0.5020800000       3
     1467  1466  1468  1476    1  0.0000000000      0.5439200000       3
     1479  1466  1468  1469    1  0.0000000000      0.6508444444       3
     1479  1466  1468  1476    1  0.0000000000      0.6508444444       3
     1464  1466  1479  1463    1  180.0000000000    1.0041600000       2
     1464  1466  1479  1480    1  180.0000000000    1.0041600000       2
     1467  1466  1479  1463    1  0.0000000000      0.0000000000       1
     1467  1466  1479  1480    1  0.0000000000      0.0000000000       1
     1468  1466  1479  1463    1  180.0000000000    1.0041600000       2
     1468  1466  1479  1480    1  180.0000000000    1.0041600000       2
     4625  4624  4628  4629    1  0.0000000000      0.5439200000       3
     4625  4624  4628  4633    1  0.0000000000      0.6508444444       3
     4625  4624  4628  4657    1  0.0000000000      0.6508444444       3
     4626  4624  4628  4629    1  0.0000000000      0.5439200000       3
     4626  4624  4628  4633    1  0.0000000000      0.6508444444       3
     4626  4624  4628  4657    1  0.0000000000      0.6508444444       3
     4627  4624  4628  4629    1  0.0000000000      0.5439200000       3
     4627  4624  4628  4633    1  0.0000000000      0.6508444444       3
     4627  4624  4628  4657    1  0.0000000000      0.6508444444       3
     4633  4634  4635  4636    1  180.0000000000    15.1670000000      2
     4633  4634  4635  4637    1  180.0000000000    15.1670000000      2
     4656  4634  4635  4636    1  180.0000000000    15.1670000000      2
     4656  4634  4635  4637    1  180.0000000000    15.1670000000      2
     4633  4634  4656  4657    1  180.0000000000    4.1840000000       2
     4633  4634  4656  4691    1  180.0000000000    4.1840000000       2
     4635  4634  4656  4657    1  180.0000000000    4.1840000000       2
     4635  4634  4656  4691    1  180.0000000000    4.1840000000       2
     1463  1479  1480  1459    1  180.0000000000    15.1670000000      2
     1463  1479  1480  1481    1  180.0000000000    15.1670000000      2
     1466  1479  1480  1459    1  180.0000000000    15.1670000000      2
     1466  1479  1480  1481    1  180.0000000000    15.1670000000      2
     1502  1503  1504  1495    1  180.0000000000    15.1670000000      2
     6231  1503  1502  6233    1  180.0000000000    15.1670000000      2
     1504  1503  6231  6232    1  0.0000000000      0.0000000000       1
     1502  1503  6231  6232    1  0.0000000000      0.0000000000       1
     1504  1503  6231  6233    1  180.0000000000    1.0041600000       2
     1502  1503  6231  6233    1  180.0000000000    1.0041600000       2
     1504  1503  6231  6229    1  180.0000000000    1.0041600000       2
     1502  1503  6231  6229    1  180.0000000000    1.0041600000       2
     1504  1503  1502  6233    1  180.0000000000    15.1670000000      2
     1470  1468  1466  1464    1  0.0000000000      2.1756800000       3
     1470  1468  1466  1467    1  0.0000000000      0.5439200000       3
     1470  1468  1466  1479    1  0.0000000000      0.6508444444       3
     1466  1468  1470  1471    1  0.0000000000      0.5439200000       3
     1466  1468  1470  1472    1  0.0000000000      2.1756800000       3
     1469  1468  1470  1471    1  0.0000000000      0.5020800000       3
     1469  1468  1470  1472    1  0.0000000000      0.5439200000       3
     1476  1468  1470  1471    1  0.0000000000      0.5439200000       3
     1476  1468  1470  1472    1  0.0000000000      2.1756800000       3
     1466  1468  1476  1474    1  0.0000000000      0.6508444444       3
     1466  1468  1476  1477    1  0.0000000000      0.6508444444       3
     1466  1468  1476  1478    1  0.0000000000      0.6508444444       3
     1469  1468  1476  1474    1  0.0000000000      0.5439200000       3
     1469  1468  1476  1477    1  0.0000000000      0.5020800000       3
     1469  1468  1476  1478    1  0.0000000000      0.5020800000       3
     1470  1468  1476  1477    1  0.0000000000      0.6508444444       3
     1470  1468  1476  1478    1  0.0000000000      0.6508444444       3
     1466  1468  1470  6057    1  0.0000000000      0.6508444444       3
     1469  1468  1470  6057    1  0.0000000000      0.6508444444       3
     1476  1468  1470  6057    1  0.0000000000      0.6508444444       3
     4628  4657  4658  4659    1  180.0000000000    15.1670000000      2
     4628  4657  4658  4660    1  180.0000000000    15.1670000000      2
     4656  4657  4658  4659    1  180.0000000000    15.1670000000      2
     4656  4657  4658  4660    1  180.0000000000    15.1670000000      2
     1472  1474  1464  1463    1  0.0000000000      0.6508444444       3
     1472  1474  1464  1465    1  0.0000000000      0.5439200000       3
     1472  1474  1464  1466    1  0.0000000000      2.1756800000       3
     1464  1474  1472  1470    1  0.0000000000      2.1756800000       3
     1475  1474  1472  1470    1  0.0000000000      0.5439200000       3
     1476  1474  1472  1470    1  0.0000000000      2.1756800000       3
     1464  1474  1472  1473    1  0.0000000000      0.5439200000       3
     1475  1474  1472  1473    1  0.0000000000      0.5020800000       3
     1476  1474  1472  1473    1  0.0000000000      0.5439200000       3
     1464  1474  1476  1468    1  0.0000000000      0.6508444444       3
     1464  1474  1476  1477    1  0.0000000000      0.6508444444       3
     1464  1474  1476  1478    1  0.0000000000      0.6508444444       3
     1472  1474  1476  1477    1  0.0000000000      0.6508444444       3
     1472  1474  1476  1478    1  0.0000000000      0.6508444444       3
     1475  1474  1476  1468    1  0.0000000000      0.5439200000       3
     1475  1474  1476  1477    1  0.0000000000      0.5020800000       3
     1475  1474  1476  1478    1  0.0000000000      0.5020800000       3
     1464  1474  1472  6056    1  0.0000000000      0.6508444444       3
     1475  1474  1472  6056    1  0.0000000000      0.6508444444       3
     1476  1474  1472  6056    1  0.0000000000      0.6508444444       3
     4634  4656  4657  4628    1  180.0000000000    15.1670000000      2
     4634  4656  4657  4658    1  180.0000000000    15.1670000000      2
     4691  4656  4657  4628    1  180.0000000000    15.1670000000      2
     4691  4656  4657  4658    1  180.0000000000    15.1670000000      2
     4634  4656  4691  4690    1  180.0000000000    15.1670000000      2
     4634  4656  4691  4692    1  180.0000000000    15.1670000000      2
     4657  4656  4691  4690    1  180.0000000000    15.1670000000      2
     4657  4656  4691  4692    1  180.0000000000    15.1670000000      2
     4634  4635  4637  4638    1  180.0000000000    15.1670000000      2
     4634  4635  4637  4653    1  180.0000000000    15.1670000000      2
     4636  4635  4637  4638    1  180.0000000000    15.1670000000      2
     4636  4635  4637  4653    1  180.0000000000    15.1670000000      2
     6225  6227  6229  6230    1  0.0000000000      0.5439200000       3
     6225  6227  6229  6237    1  0.0000000000      2.1756800000       3
     6228  6227  6229  6230    1  0.0000000000      0.5020800000       3
     6228  6227  6229  6237    1  0.0000000000      0.5439200000       3
     6240  6227  6229  6230    1  0.0000000000      0.6508444444       3
     6240  6227  6229  6237    1  0.0000000000      0.6508444444       3
     6225  6227  6240  6224    1  180.0000000000    1.0041600000       2
     6225  6227  6240  6241    1  180.0000000000    1.0041600000       2
     6228  6227  6240  6224    1  0.0000000000      0.0000000000       1
     6228  6227  6240  6241    1  0.0000000000      0.0000000000       1
     6229  6227  6240  6224    1  180.0000000000    1.0041600000       2
     6229  6227  6240  6241    1  180.0000000000    1.0041600000       2
     4635  4637  4638  4639    1  0.0000000000      0.0000000000       1
     4635  4637  4638  4640    1  180.0000000000    1.0041600000       2
     4635  4637  4638  4648    1  180.0000000000    1.0041600000       2
     4653  4637  4638  4639    1  0.0000000000      0.0000000000       1
     4653  4637  4638  4640    1  180.0000000000    1.0041600000       2
     4653  4637  4638  4648    1  180.0000000000    1.0041600000       2
     4635  4637  4653  4640    1  180.0000000000    15.1670000000      2
     4635  4637  4653  4654    1  180.0000000000    15.1670000000      2
     4638  4637  4653  4640    1  180.0000000000    15.1670000000      2
     4638  4637  4653  4654    1  180.0000000000    15.1670000000      2
     6051  6056  6057  6058    1  180.0000000000    15.1670000000      2
     1472  6056  6057  1470    1  180.0000000000    15.1670000000      2
     6051  6056  1472  1470    1  180.0000000000    1.0041600000       2
     6057  6056  1472  1470    1  180.0000000000    1.0041600000       2
     6051  6056  1472  1473    1  0.0000000000      0.0000000000       1
     6057  6056  1472  1473    1  0.0000000000      0.0000000000       1
     6051  6056  1472  1474    1  180.0000000000    1.0041600000       2
     6057  6056  1472  1474    1  180.0000000000    1.0041600000       2
     6051  6056  6057  1470    1  180.0000000000    15.1670000000      2
     4628  4633  4634  4635    1  180.0000000000    15.1670000000      2
     4628  4633  4634  4656    1  180.0000000000    15.1670000000      2
     4654  4633  4634  4635    1  180.0000000000    15.1670000000      2
     4654  4633  4634  4656    1  180.0000000000    15.1670000000      2
     4628  4633  4654  4653    1  180.0000000000    15.1670000000      2
     4628  4633  4654  4655    1  180.0000000000    15.1670000000      2
     4634  4633  4654  4653    1  180.0000000000    15.1670000000      2
     4634  4633  4654  4655    1  180.0000000000    15.1670000000      2
     6229  6237  6235  6233    1  0.0000000000      0.6508444444       3
     6235  6237  6229  6231    1  0.0000000000      0.6508444444       3
     4660  4690  4691  4656    1  180.0000000000    15.1670000000      2
     4660  4690  4691  4692    1  180.0000000000    15.1670000000      2
     4663  4690  4691  4656    1  180.0000000000    15.1670000000      2
     4663  4690  4691  4692    1  180.0000000000    15.1670000000      2
     6056  6057  6058  6049    1  180.0000000000    15.1670000000      2
     6058  6057  6056  1472    1  180.0000000000    15.1670000000      2
     6056  6057  1470  1468    1  180.0000000000    1.0041600000       2
     6058  6057  1470  1468    1  180.0000000000    1.0041600000       2
     6056  6057  1470  1471    1  0.0000000000      0.0000000000       1
     6058  6057  1470  1471    1  0.0000000000      0.0000000000       1
     6056  6057  1470  1472    1  180.0000000000    1.0041600000       2
     6058  6057  1470  1472    1  180.0000000000    1.0041600000       2
     6056  6051  6050  6063    1  180.0000000000    15.1670000000      2
     6050  6051  6052  6053    1  0.0000000000      0.0000000000       2
     6050  6051  6052  6054    1  0.0000000000      0.0000000000       2
     6050  6051  6052  6055    1  0.0000000000      0.0000000000       2
     6050  6051  6056  6057    1  180.0000000000    15.1670000000      2
     6052  6051  6056  6057    1  180.0000000000    15.1670000000      2
     6050  6051  6056  1472    1  180.0000000000    15.1670000000      2
     6052  6051  6056  1472    1  180.0000000000    15.1670000000      2
     6231  6229  6227  6225    1  0.0000000000      2.1756800000       3
     6231  6229  6227  6228    1  0.0000000000      0.5439200000       3
     6231  6229  6227  6240    1  0.0000000000      0.6508444444       3
     6227  6229  6231  6232    1  0.0000000000      0.5439200000       3
     6227  6229  6231  6233    1  0.0000000000      2.1756800000       3
     6230  6229  6231  6232    1  0.0000000000      0.5020800000       3
     6230  6229  6231  6233    1  0.0000000000      0.5439200000       3
     6237  6229  6231  6232    1  0.0000000000      0.5439200000       3
     6237  6229  6231  6233    1  0.0000000000      2.1756800000       3
     6227  6229  6237  6235    1  0.0000000000      0.6508444444       3
     6227  6229  6237  6238    1  0.0000000000      0.6508444444       3
     6227  6229  6237  6239    1  0.0000000000      0.6508444444       3
     6230  6229  6237  6235    1  0.0000000000      0.5439200000       3
     6230  6229  6237  6238    1  0.0000000000      0.5020800000       3
     6230  6229  6237  6239    1  0.0000000000      0.5020800000       3
     6231  6229  6237  6238    1  0.0000000000      0.6508444444       3
     6231  6229  6237  6239    1  0.0000000000      0.6508444444       3
     6227  6229  6231  1503    1  0.0000000000      0.6508444444       3
     6230  6229  6231  1503    1  0.0000000000      0.6508444444       3
     6237  6229  6231  1503    1  0.0000000000      0.6508444444       3
     1461  1463  1464  1465    1  0.0000000000      0.0000000000       1
     1461  1463  1464  1466    1  180.0000000000    1.0041600000       2
     1461  1463  1464  1474    1  180.0000000000    1.0041600000       2
     1479  1463  1464  1465    1  0.0000000000      0.0000000000       1
     1479  1463  1464  1466    1  180.0000000000    1.0041600000       2
     1479  1463  1464  1474    1  180.0000000000    1.0041600000       2
     1461  1463  1479  1466    1  180.0000000000    15.1670000000      2
     1461  1463  1479  1480    1  180.0000000000    15.1670000000      2
     1464  1463  1479  1466    1  180.0000000000    15.1670000000      2
     1464  1463  1479  1480    1  180.0000000000    15.1670000000      2
     1460  1461  1463  1464    1  180.0000000000    15.1670000000      2
     1460  1461  1463  1479    1  180.0000000000    15.1670000000      2
     1462  1461  1463  1464    1  180.0000000000    15.1670000000      2
     1462  1461  1463  1479    1  180.0000000000    15.1670000000      2
     1463  1464  1466  1467    1  0.0000000000      0.6508444444       3
     1463  1464  1466  1468    1  0.0000000000      0.6508444444       3
     1463  1464  1466  1479    1  0.0000000000      0.6508444444       3
     1465  1464  1466  1467    1  0.0000000000      0.6508444444       3
     1465  1464  1466  1468    1  0.0000000000      0.6508444444       3
     1465  1464  1466  1479    1  0.0000000000      0.6508444444       3
     1474  1464  1466  1467    1  0.0000000000      0.6508444444       3
     1474  1464  1466  1468    1  0.0000000000      0.6508444444       3
     1474  1464  1466  1479    1  0.0000000000      0.6508444444       3
     1463  1464  1474  1475    1  0.0000000000      0.6508444444       3
     1463  1464  1474  1476    1  0.0000000000      0.6508444444       3
     1465  1464  1474  1475    1  0.0000000000      0.5020800000       3
     1465  1464  1474  1476    1  0.0000000000      0.5439200000       3
     1466  1464  1474  1475    1  0.0000000000      0.5439200000       3
     1466  1464  1474  1476    1  0.0000000000      2.1756800000       3
     1474  1472  1470  1471    1  0.0000000000      0.6508444444       3
     6056  1472  1470  1471    1  0.0000000000      0.6508444444       3
     6056  1472  1470  6057    1  0.0000000000      0.6508444444       3
     1474  1472  1470  6057    1  0.0000000000      0.6508444444       3
     4624  4628  4629  4630    1  0.0000000000      0.5439200000       3
     4624  4628  4629  4631    1  0.0000000000      0.5439200000       3
     4624  4628  4629  4632    1  0.0000000000      0.5439200000       3
     4633  4628  4629  4630    1  0.0000000000      0.6508444444       3
     4633  4628  4629  4631    1  0.0000000000      0.6508444444       3
     4633  4628  4629  4632    1  0.0000000000      0.6508444444       3
     4657  4628  4629  4630    1  0.0000000000      0.6508444444       3
     4657  4628  4629  4631    1  0.0000000000      0.6508444444       3
     4657  4628  4629  4632    1  0.0000000000      0.6508444444       3
     4624  4628  4633  4634    1  0.0000000000      0.0000000000       2
     4624  4628  4633  4654    1  180.0000000000    1.0041600000       2
     4629  4628  4633  4634    1  0.0000000000      0.0000000000       2
     4629  4628  4633  4654    1  180.0000000000    1.0041600000       2
     4657  4628  4633  4634    1  0.0000000000      0.0000000000       2
     4657  4628  4633  4654    1  180.0000000000    0.0000000000       2
     4624  4628  4657  4656    1  0.0000000000      0.0000000000       2
     4624  4628  4657  4658    1  180.0000000000    1.0041600000       2
     4629  4628  4657  4656    1  0.0000000000      0.0000000000       2
     4629  4628  4657  4658    1  180.0000000000    1.0041600000       2
     4633  4628  4657  4656    1  0.0000000000      0.0000000000       2
     4633  4628  4657  4658    1  180.0000000000    0.0000000000       2
     6235  6233  6231  6232    1  0.0000000000      0.6508444444       3
     6235  6233  6231  1503    1  0.0000000000      0.6508444444       3
     1502  6233  6231  6232    1  0.0000000000      0.6508444444       3
     6053  6052  6051  6056    1  0.0000000000      0.0000000000       2
     6054  6052  6051  6056    1  0.0000000000      0.0000000000       2
     6055  6052  6051  6056    1  0.0000000000      0.0000000000       2
     6049  6050  6051  6052    1  180.0000000000    15.1670000000      2
     6049  6050  6051  6056    1  180.0000000000    15.1670000000      2
     6063  6050  6051  6052    1  180.0000000000    15.1670000000      2
     6049  6050  6063  6047    1  180.0000000000    1.0041600000       2
     6049  6050  6063  6064    1  0.0000000000      0.0000000000       1
     6049  6050  6063  6065    1  180.0000000000    1.0041600000       2
     6051  6050  6063  6047    1  180.0000000000    1.0041600000       2
     6051  6050  6063  6064    1  0.0000000000      0.0000000000       1
     6051  6050  6063  6065    1  180.0000000000    1.0041600000       2
     1468  1470  1472  1473    1  0.0000000000      0.6508444444       3
     1468  1470  1472  1474    1  0.0000000000      0.6508444444       3
     1471  1470  1472  1473    1  0.0000000000      0.6508444444       3
     1468  1470  1472  6056    1  0.0000000000      0.6508444444       3
     6057  1470  1472  1473    1  0.0000000000      0.6508444444       3
     1474  1476  1468  1470    1  0.0000000000      0.6508444444       3
     1468  1476  1474  1472    1  0.0000000000      0.6508444444       3
     725   727   728   729     1  0.0000000000      0.0000000000       1
     725   727   728   730     1  180.0000000000    1.0041600000       2
     725   727   728   752     1  180.0000000000    1.0041600000       2
     757   727   728   729     1  0.0000000000      0.0000000000       1
     757   727   728   730     1  180.0000000000    1.0041600000       2
     757   727   728   752     1  180.0000000000    1.0041600000       2
     725   727   757   730     1  180.0000000000    15.1670000000      2
     725   727   757   758     1  180.0000000000    15.1670000000      2
     728   727   757   730     1  180.0000000000    15.1670000000      2
     728   727   757   758     1  180.0000000000    15.1670000000      2
     727   728   730   731     1  0.0000000000      0.6508444444       3
     727   728   730   732     1  0.0000000000      0.6508444444       3
     727   728   730   757     1  0.0000000000      0.6508444444       3
     729   728   730   731     1  0.0000000000      0.6508444444       3
     729   728   730   732     1  0.0000000000      0.6508444444       3
     729   728   730   757     1  0.0000000000      0.6508444444       3
     752   728   730   731     1  0.0000000000      0.6508444444       3
     752   728   730   732     1  0.0000000000      0.6508444444       3
     752   728   730   757     1  0.0000000000      0.6508444444       3
     727   728   752   750     1  0.0000000000      0.6508444444       3
     727   728   752   753     1  0.0000000000      0.6508444444       3
     727   728   752   754     1  0.0000000000      0.6508444444       3
     729   728   752   750     1  0.0000000000      0.5439200000       3
     729   728   752   753     1  0.0000000000      0.5020800000       3
     729   728   752   754     1  0.0000000000      0.5439200000       3
     730   728   752   750     1  0.0000000000      2.1756800000       3
     730   728   752   753     1  0.0000000000      0.5439200000       3
     730   728   752   754     1  0.0000000000      2.1756800000       3
     728   730   732   733     1  0.0000000000      0.5439200000       3
     728   730   732   734     1  0.0000000000      2.1756800000       3
     728   730   732   754     1  0.0000000000      2.1756800000       3
     731   730   732   733     1  0.0000000000      0.5020800000       3
     731   730   732   734     1  0.0000000000      0.5439200000       3
     731   730   732   754     1  0.0000000000      0.5439200000       3
     757   730   732   733     1  0.0000000000      0.6508444444       3
     757   730   732   734     1  0.0000000000      0.6508444444       3
     757   730   732   754     1  0.0000000000      0.6508444444       3
     728   730   757   727     1  180.0000000000    1.0041600000       2
     728   730   757   758     1  180.0000000000    1.0041600000       2
     731   730   757   727     1  0.0000000000      0.0000000000       1
     731   730   757   758     1  0.0000000000      0.0000000000       1
     732   730   757   727     1  180.0000000000    1.0041600000       2
     732   730   757   758     1  180.0000000000    1.0041600000       2
     727   757   758   723     1  180.0000000000    15.1670000000      2
     727   757   758   759     1  180.0000000000    15.1670000000      2
     730   757   758   723     1  180.0000000000    15.1670000000      2
     730   757   758   759     1  180.0000000000    15.1670000000      2
     724   725   727   728     1  180.0000000000    15.1670000000      2
     724   725   727   757     1  180.0000000000    15.1670000000      2
     726   725   727   728     1  180.0000000000    15.1670000000      2
     726   725   727   757     1  180.0000000000    15.1670000000      2
     734   750   752   728     1  0.0000000000      2.1756800000       3
     734   750   752   753     1  0.0000000000      0.5439200000       3
     734   750   752   754     1  0.0000000000      2.1756800000       3
     737   750   752   728     1  0.0000000000      0.6508444444       3
     737   750   752   753     1  0.0000000000      0.6508444444       3
     737   750   752   754     1  0.0000000000      0.6508444444       3
     751   750   752   728     1  0.0000000000      0.5439200000       3
     751   750   752   753     1  0.0000000000      0.5020800000       3
     751   750   752   754     1  0.0000000000      0.5439200000       3
     732   734   736   737     1  180.0000000000    1.0041600000       2
     732   734   736   745     1  180.0000000000    1.0041600000       2
     735   734   736   737     1  0.0000000000      0.0000000000       1
     735   734   736   745     1  0.0000000000      0.0000000000       1
     750   734   736   737     1  180.0000000000    1.0041600000       2
     750   734   736   745     1  180.0000000000    1.0041600000       2
     732   734   750   737     1  0.0000000000      0.6508444444       3
     732   734   750   751     1  0.0000000000      0.6508444444       3
     732   734   750   752     1  0.0000000000      0.6508444444       3
     735   734   750   737     1  0.0000000000      0.6508444444       3
     735   734   750   751     1  0.0000000000      0.6508444444       3
     735   734   750   752     1  0.0000000000      0.6508444444       3
     736   734   750   737     1  0.0000000000      0.6508444444       3
     736   734   750   751     1  0.0000000000      0.6508444444       3
     736   734   750   752     1  0.0000000000      0.6508444444       3
     695   724   725   726     1  180.0000000000    15.1670000000      2
     695   724   725   727     1  180.0000000000    15.1670000000      2
     723   724   725   726     1  180.0000000000    15.1670000000      2
     723   724   725   727     1  180.0000000000    15.1670000000      2
     701   723   724   695     1  180.0000000000    15.1670000000      2
     701   723   724   725     1  180.0000000000    15.1670000000      2
     758   723   724   695     1  180.0000000000    15.1670000000      2
     758   723   724   725     1  180.0000000000    15.1670000000      2
     701   723   758   757     1  180.0000000000    15.1670000000      2
     701   723   758   759     1  180.0000000000    15.1670000000      2
     724   723   758   757     1  180.0000000000    15.1670000000      2
     724   723   758   759     1  180.0000000000    15.1670000000      2
     728   752   754   732     1  0.0000000000      0.6508444444       3
     728   752   754   755     1  0.0000000000      0.6508444444       3
     728   752   754   756     1  0.0000000000      0.6508444444       3
     750   752   754   732     1  0.0000000000      0.6508444444       3
     750   752   754   755     1  0.0000000000      0.6508444444       3
     750   752   754   756     1  0.0000000000      0.6508444444       3
     753   752   754   732     1  0.0000000000      0.5439200000       3
     753   752   754   755     1  0.0000000000      0.5020800000       3
     753   752   754   756     1  0.0000000000      0.5020800000       3
     730   732   734   735     1  0.0000000000      0.5439200000       3
     730   732   734   736     1  0.0000000000      0.6508444444       3
     730   732   734   750     1  0.0000000000      2.1756800000       3
     733   732   734   735     1  0.0000000000      0.5020800000       3
     733   732   734   736     1  0.0000000000      0.6508444444       3
     733   732   734   750     1  0.0000000000      0.5439200000       3
     754   732   734   735     1  0.0000000000      0.5439200000       3
     754   732   734   736     1  0.0000000000      0.6508444444       3
     754   732   734   750     1  0.0000000000      2.1756800000       3
     730   732   754   752     1  0.0000000000      0.6508444444       3
     730   732   754   755     1  0.0000000000      0.6508444444       3
     730   732   754   756     1  0.0000000000      0.6508444444       3
     733   732   754   752     1  0.0000000000      0.5439200000       3
     733   732   754   755     1  0.0000000000      0.5020800000       3
     733   732   754   756     1  0.0000000000      0.5020800000       3
     734   732   754   752     1  0.0000000000      0.6508444444       3
     734   732   754   755     1  0.0000000000      0.6508444444       3
     734   732   754   756     1  0.0000000000      0.6508444444       3
     6040  6070  6071  6036    1  180.0000000000    15.1670000000      2
     6040  6070  6071  6072    1  180.0000000000    15.1670000000      2
     6043  6070  6071  6036    1  180.0000000000    15.1670000000      2
     6043  6070  6071  6072    1  180.0000000000    15.1670000000      2
     6040  6041  6043  6044    1  0.0000000000      0.6508444444       3
     6040  6041  6043  6045    1  0.0000000000      0.6508444444       3
     6040  6041  6043  6070    1  0.0000000000      0.6508444444       3
     6042  6041  6043  6044    1  0.0000000000      0.6508444444       3
     6042  6041  6043  6045    1  0.0000000000      0.6508444444       3
     6042  6041  6043  6070    1  0.0000000000      0.6508444444       3
     6065  6041  6043  6044    1  0.0000000000      0.6508444444       3
     6065  6041  6043  6045    1  0.0000000000      0.6508444444       3
     6065  6041  6043  6070    1  0.0000000000      0.6508444444       3
     6040  6041  6065  6063    1  0.0000000000      0.6508444444       3
     6040  6041  6065  6066    1  0.0000000000      0.6508444444       3
     6040  6041  6065  6067    1  0.0000000000      0.6508444444       3
     6042  6041  6065  6063    1  0.0000000000      0.5439200000       3
     6042  6041  6065  6066    1  0.0000000000      0.5020800000       3
     6042  6041  6065  6067    1  0.0000000000      0.5439200000       3
     6043  6041  6065  6063    1  0.0000000000      2.1756800000       3
     6043  6041  6065  6066    1  0.0000000000      0.5439200000       3
     6043  6041  6065  6067    1  0.0000000000      2.1756800000       3
     1831  1832  1834  1835    1  0.0000000000      0.6508444444       3
     1831  1832  1834  1836    1  0.0000000000      0.6508444444       3
     1831  1832  1834  1861    1  0.0000000000      0.6508444444       3
     1833  1832  1834  1835    1  0.0000000000      0.6508444444       3
     1833  1832  1834  1836    1  0.0000000000      0.6508444444       3
     1833  1832  1834  1861    1  0.0000000000      0.6508444444       3
     1856  1832  1834  1835    1  0.0000000000      0.6508444444       3
     1856  1832  1834  1836    1  0.0000000000      0.6508444444       3
     1856  1832  1834  1861    1  0.0000000000      0.6508444444       3
     1831  1832  1856  1854    1  0.0000000000      0.6508444444       3
     1831  1832  1856  1857    1  0.0000000000      0.6508444444       3
     1831  1832  1856  1858    1  0.0000000000      0.6508444444       3
     1833  1832  1856  1854    1  0.0000000000      0.5439200000       3
     1833  1832  1856  1857    1  0.0000000000      0.5020800000       3
     1833  1832  1856  1858    1  0.0000000000      0.5439200000       3
     1834  1832  1856  1854    1  0.0000000000      2.1756800000       3
     1834  1832  1856  1857    1  0.0000000000      0.5439200000       3
     1834  1832  1856  1858    1  0.0000000000      2.1756800000       3
     1832  1856  1858  1836    1  0.0000000000      0.6508444444       3
     1832  1856  1858  1859    1  0.0000000000      0.6508444444       3
     1832  1856  1858  1860    1  0.0000000000      0.6508444444       3
     1854  1856  1858  1836    1  0.0000000000      0.6508444444       3
     1854  1856  1858  1859    1  0.0000000000      0.6508444444       3
     1854  1856  1858  1860    1  0.0000000000      0.6508444444       3
     1857  1856  1858  1836    1  0.0000000000      0.5439200000       3
     1857  1856  1858  1859    1  0.0000000000      0.5020800000       3
     1857  1856  1858  1860    1  0.0000000000      0.5020800000       3
     1832  1834  1836  1837    1  0.0000000000      0.5439200000       3
     1832  1834  1836  1838    1  0.0000000000      2.1756800000       3
     1832  1834  1836  1858    1  0.0000000000      2.1756800000       3
     1835  1834  1836  1837    1  0.0000000000      0.5020800000       3
     1835  1834  1836  1838    1  0.0000000000      0.5439200000       3
     1835  1834  1836  1858    1  0.0000000000      0.5439200000       3
     1861  1834  1836  1837    1  0.0000000000      0.6508444444       3
     1861  1834  1836  1838    1  0.0000000000      0.6508444444       3
     1861  1834  1836  1858    1  0.0000000000      0.6508444444       3
     1832  1834  1861  1831    1  180.0000000000    1.0041600000       2
     1832  1834  1861  1862    1  180.0000000000    1.0041600000       2
     1835  1834  1861  1831    1  0.0000000000      0.0000000000       1
     1835  1834  1861  1862    1  0.0000000000      0.0000000000       1
     1836  1834  1861  1831    1  180.0000000000    1.0041600000       2
     1836  1834  1861  1862    1  180.0000000000    1.0041600000       2
     1829  1831  1832  1833    1  0.0000000000      0.0000000000       1
     1829  1831  1832  1834    1  180.0000000000    1.0041600000       2
     1829  1831  1832  1856    1  180.0000000000    1.0041600000       2
     1861  1831  1832  1833    1  0.0000000000      0.0000000000       1
     1861  1831  1832  1834    1  180.0000000000    1.0041600000       2
     1861  1831  1832  1856    1  180.0000000000    1.0041600000       2
     1829  1831  1861  1834    1  180.0000000000    15.1670000000      2
     1829  1831  1861  1862    1  180.0000000000    15.1670000000      2
     1832  1831  1861  1834    1  180.0000000000    15.1670000000      2
     1832  1831  1861  1862    1  180.0000000000    15.1670000000      2
     6041  6043  6045  6046    1  0.0000000000      0.5439200000       3
     6041  6043  6045  6047    1  0.0000000000      2.1756800000       3
     6041  6043  6045  6067    1  0.0000000000      2.1756800000       3
     6044  6043  6045  6046    1  0.0000000000      0.5020800000       3
     6044  6043  6045  6047    1  0.0000000000      0.5439200000       3
     6044  6043  6045  6067    1  0.0000000000      0.5439200000       3
     6070  6043  6045  6046    1  0.0000000000      0.6508444444       3
     6070  6043  6045  6047    1  0.0000000000      0.6508444444       3
     6070  6043  6045  6067    1  0.0000000000      0.6508444444       3
     6041  6043  6070  6040    1  180.0000000000    1.0041600000       2
     6041  6043  6070  6071    1  180.0000000000    1.0041600000       2
     6044  6043  6070  6040    1  0.0000000000      0.0000000000       1
     6044  6043  6070  6071    1  0.0000000000      0.0000000000       1
     6045  6043  6070  6040    1  180.0000000000    1.0041600000       2
     6045  6043  6070  6071    1  180.0000000000    1.0041600000       2
     1023  1022  1021  1020    1  0.0000000000      0.0000000000       2
     1024  1022  1021  1020    1  0.0000000000      0.0000000000       2
     1025  1022  1021  1020    1  0.0000000000      0.0000000000       2
     6038  6040  6041  6042    1  0.0000000000      0.0000000000       1
     6038  6040  6041  6043    1  180.0000000000    1.0041600000       2
     6038  6040  6041  6065    1  180.0000000000    1.0041600000       2
     6070  6040  6041  6042    1  0.0000000000      0.0000000000       1
     6070  6040  6041  6043    1  180.0000000000    1.0041600000       2
     6070  6040  6041  6065    1  180.0000000000    1.0041600000       2
     6038  6040  6070  6043    1  180.0000000000    15.1670000000      2
     6038  6040  6070  6071    1  180.0000000000    15.1670000000      2
     6041  6040  6070  6043    1  180.0000000000    15.1670000000      2
     6041  6040  6070  6071    1  180.0000000000    15.1670000000      2
     700   701   702   703     1  180.0000000000    15.1670000000      2
     700   701   702   704     1  180.0000000000    15.1670000000      2
     723   701   702   703     1  180.0000000000    15.1670000000      2
     723   701   702   704     1  180.0000000000    15.1670000000      2
     700   701   723   724     1  180.0000000000    4.1840000000       2
     700   701   723   758     1  180.0000000000    4.1840000000       2
     702   701   723   724     1  180.0000000000    4.1840000000       2
     702   701   723   758     1  180.0000000000    4.1840000000       2
     1831  1861  1862  1827    1  180.0000000000    15.1670000000      2
     1831  1861  1862  1863    1  180.0000000000    15.1670000000      2
     1834  1861  1862  1827    1  180.0000000000    15.1670000000      2
     1834  1861  1862  1863    1  180.0000000000    15.1670000000      2
     1834  1836  1838  1839    1  0.0000000000      0.5439200000       3
     1834  1836  1838  1840    1  0.0000000000      0.6508444444       3
     1834  1836  1838  1854    1  0.0000000000      2.1756800000       3
     1837  1836  1838  1839    1  0.0000000000      0.5020800000       3
     1837  1836  1838  1840    1  0.0000000000      0.6508444444       3
     1837  1836  1838  1854    1  0.0000000000      0.5439200000       3
     1858  1836  1838  1839    1  0.0000000000      0.5439200000       3
     1858  1836  1838  1840    1  0.0000000000      0.6508444444       3
     1858  1836  1838  1854    1  0.0000000000      2.1756800000       3
     1834  1836  1858  1856    1  0.0000000000      0.6508444444       3
     1834  1836  1858  1859    1  0.0000000000      0.6508444444       3
     1834  1836  1858  1860    1  0.0000000000      0.6508444444       3
     1837  1836  1858  1856    1  0.0000000000      0.5439200000       3
     1837  1836  1858  1859    1  0.0000000000      0.5020800000       3
     1837  1836  1858  1860    1  0.0000000000      0.5020800000       3
     1838  1836  1858  1856    1  0.0000000000      0.6508444444       3
     1838  1836  1858  1859    1  0.0000000000      0.6508444444       3
     1838  1836  1858  1860    1  0.0000000000      0.6508444444       3
     1838  1854  1856  1832    1  0.0000000000      2.1756800000       3
     1838  1854  1856  1857    1  0.0000000000      0.5439200000       3
     1838  1854  1856  1858    1  0.0000000000      2.1756800000       3
     1841  1854  1856  1832    1  0.0000000000      0.6508444444       3
     1841  1854  1856  1857    1  0.0000000000      0.6508444444       3
     1841  1854  1856  1858    1  0.0000000000      0.6508444444       3
     1855  1854  1856  1832    1  0.0000000000      0.5439200000       3
     1855  1854  1856  1857    1  0.0000000000      0.5020800000       3
     1855  1854  1856  1858    1  0.0000000000      0.5439200000       3
     5006  5008  5010  5011    1  0.0000000000      0.5439200000       3
     5006  5008  5010  5012    1  0.0000000000      2.1756800000       3
     5006  5008  5010  5032    1  0.0000000000      2.1756800000       3
     5009  5008  5010  5011    1  0.0000000000      0.5020800000       3
     5009  5008  5010  5012    1  0.0000000000      0.5439200000       3
     5009  5008  5010  5032    1  0.0000000000      0.5439200000       3
     5035  5008  5010  5011    1  0.0000000000      0.6508444444       3
     5035  5008  5010  5012    1  0.0000000000      0.6508444444       3
     5035  5008  5010  5032    1  0.0000000000      0.6508444444       3
     5006  5008  5035  5005    1  180.0000000000    1.0041600000       2
     5006  5008  5035  5036    1  180.0000000000    1.0041600000       2
     5009  5008  5035  5005    1  0.0000000000      0.0000000000       1
     5009  5008  5035  5036    1  0.0000000000      0.0000000000       1
     5010  5008  5035  5005    1  180.0000000000    1.0041600000       2
     5010  5008  5035  5036    1  180.0000000000    1.0041600000       2
     6041  6065  6067  6045    1  0.0000000000      0.6508444444       3
     6041  6065  6067  6068    1  0.0000000000      0.6508444444       3
     6041  6065  6067  6069    1  0.0000000000      0.6508444444       3
     6063  6065  6067  6045    1  0.0000000000      0.6508444444       3
     6063  6065  6067  6068    1  0.0000000000      0.6508444444       3
     6063  6065  6067  6069    1  0.0000000000      0.6508444444       3
     6066  6065  6067  6045    1  0.0000000000      0.5439200000       3
     6066  6065  6067  6068    1  0.0000000000      0.5020800000       3
     6066  6065  6067  6069    1  0.0000000000      0.5020800000       3
     691   695   696   697     1  0.0000000000      0.5439200000       3
     691   695   696   698     1  0.0000000000      0.5439200000       3
     691   695   696   699     1  0.0000000000      0.5439200000       3
     700   695   696   697     1  0.0000000000      0.6508444444       3
     700   695   696   698     1  0.0000000000      0.6508444444       3
     700   695   696   699     1  0.0000000000      0.6508444444       3
     724   695   696   697     1  0.0000000000      0.6508444444       3
     724   695   696   698     1  0.0000000000      0.6508444444       3
     724   695   696   699     1  0.0000000000      0.6508444444       3
     691   695   700   701     1  0.0000000000      0.0000000000       2
     691   695   700   721     1  180.0000000000    1.0041600000       2
     696   695   700   701     1  0.0000000000      0.0000000000       2
     696   695   700   721     1  180.0000000000    1.0041600000       2
     724   695   700   701     1  0.0000000000      0.0000000000       2
     724   695   700   721     1  180.0000000000    0.0000000000       2
     691   695   724   723     1  0.0000000000      0.0000000000       2
     691   695   724   725     1  180.0000000000    1.0041600000       2
     696   695   724   723     1  0.0000000000      0.0000000000       2
     696   695   724   725     1  180.0000000000    1.0041600000       2
     700   695   724   723     1  0.0000000000      0.0000000000       2
     700   695   724   725     1  180.0000000000    0.0000000000       2
     6014  6015  6017  6018    1  180.0000000000    15.1670000000      2
     6014  6015  6017  6033    1  180.0000000000    15.1670000000      2
     6016  6015  6017  6018    1  180.0000000000    15.1670000000      2
     6016  6015  6017  6033    1  180.0000000000    15.1670000000      2
     5008  5010  5012  5013    1  0.0000000000      0.5439200000       3
     5008  5010  5012  5014    1  0.0000000000      0.6508444444       3
     5008  5010  5012  5028    1  0.0000000000      2.1756800000       3
     5011  5010  5012  5013    1  0.0000000000      0.5020800000       3
     5011  5010  5012  5014    1  0.0000000000      0.6508444444       3
     5011  5010  5012  5028    1  0.0000000000      0.5439200000       3
     5032  5010  5012  5013    1  0.0000000000      0.5439200000       3
     5032  5010  5012  5014    1  0.0000000000      0.6508444444       3
     5032  5010  5012  5028    1  0.0000000000      2.1756800000       3
     5008  5010  5032  5030    1  0.0000000000      0.6508444444       3
     5008  5010  5032  5033    1  0.0000000000      0.6508444444       3
     5008  5010  5032  5034    1  0.0000000000      0.6508444444       3
     5011  5010  5032  5030    1  0.0000000000      0.5439200000       3
     5011  5010  5032  5033    1  0.0000000000      0.5020800000       3
     5011  5010  5032  5034    1  0.0000000000      0.5020800000       3
     5012  5010  5032  5030    1  0.0000000000      0.6508444444       3
     5012  5010  5032  5033    1  0.0000000000      0.6508444444       3
     5012  5010  5032  5034    1  0.0000000000      0.6508444444       3
     1836  1838  1840  1841    1  180.0000000000    1.0041600000       2
     1836  1838  1840  1849    1  180.0000000000    1.0041600000       2
     1839  1838  1840  1841    1  0.0000000000      0.0000000000       1
     1839  1838  1840  1849    1  0.0000000000      0.0000000000       1
     1854  1838  1840  1841    1  180.0000000000    1.0041600000       2
     1854  1838  1840  1849    1  180.0000000000    1.0041600000       2
     1836  1838  1854  1841    1  0.0000000000      0.6508444444       3
     1836  1838  1854  1855    1  0.0000000000      0.6508444444       3
     1836  1838  1854  1856    1  0.0000000000      0.6508444444       3
     1839  1838  1854  1841    1  0.0000000000      0.6508444444       3
     1839  1838  1854  1855    1  0.0000000000      0.6508444444       3
     1839  1838  1854  1856    1  0.0000000000      0.6508444444       3
     1840  1838  1854  1841    1  0.0000000000      0.6508444444       3
     1840  1838  1854  1855    1  0.0000000000      0.6508444444       3
     1840  1838  1854  1856    1  0.0000000000      0.6508444444       3
     692   691   695   696     1  0.0000000000      0.5439200000       3
     692   691   695   700     1  0.0000000000      0.6508444444       3
     692   691   695   724     1  0.0000000000      0.6508444444       3
     693   691   695   696     1  0.0000000000      0.5439200000       3
     693   691   695   700     1  0.0000000000      0.6508444444       3
     693   691   695   724     1  0.0000000000      0.6508444444       3
     694   691   695   696     1  0.0000000000      0.5439200000       3
     694   691   695   700     1  0.0000000000      0.6508444444       3
     694   691   695   724     1  0.0000000000      0.6508444444       3
     736   737   738   739     1  180.0000000000    15.1670000000      2
     736   737   738   743     1  180.0000000000    15.1670000000      2
     750   737   738   739     1  180.0000000000    15.1670000000      2
     736   737   750   734     1  180.0000000000    1.0041600000       2
     736   737   750   751     1  0.0000000000      0.0000000000       1
     736   737   750   752     1  180.0000000000    1.0041600000       2
     738   737   750   734     1  180.0000000000    1.0041600000       2
     738   737   750   751     1  0.0000000000      0.0000000000       1
     738   737   750   752     1  180.0000000000    1.0041600000       2
     734   736   737   738     1  180.0000000000    15.1670000000      2
     734   736   737   750     1  180.0000000000    15.1670000000      2
     745   736   737   738     1  180.0000000000    15.1670000000      2
     745   736   737   750     1  180.0000000000    15.1670000000      2
     734   736   745   746     1  180.0000000000    15.1670000000      2
     737   736   745   744     1  180.0000000000    15.1670000000      2
     737   736   745   746     1  180.0000000000    15.1670000000      2
     1006  1008  1010  1011    1  0.0000000000      0.5439200000       3
     1006  1008  1010  1012    1  0.0000000000      0.6508444444       3
     1006  1008  1010  1026    1  0.0000000000      2.1756800000       3
     1009  1008  1010  1011    1  0.0000000000      0.5020800000       3
     1009  1008  1010  1012    1  0.0000000000      0.6508444444       3
     1009  1008  1010  1026    1  0.0000000000      0.5439200000       3
     1030  1008  1010  1011    1  0.0000000000      0.5439200000       3
     1030  1008  1010  1012    1  0.0000000000      0.6508444444       3
     1030  1008  1010  1026    1  0.0000000000      2.1756800000       3
     1006  1008  1030  1028    1  0.0000000000      0.6508444444       3
     1006  1008  1030  1031    1  0.0000000000      0.6508444444       3
     1006  1008  1030  1032    1  0.0000000000      0.6508444444       3
     1009  1008  1030  1028    1  0.0000000000      0.5439200000       3
     1009  1008  1030  1031    1  0.0000000000      0.5020800000       3
     1009  1008  1030  1032    1  0.0000000000      0.5020800000       3
     1010  1008  1030  1028    1  0.0000000000      0.6508444444       3
     1010  1008  1030  1031    1  0.0000000000      0.6508444444       3
     1010  1008  1030  1032    1  0.0000000000      0.6508444444       3
     6014  6036  6037  6008    1  180.0000000000    15.1670000000      2
     6014  6036  6037  6038    1  180.0000000000    15.1670000000      2
     6071  6036  6037  6008    1  180.0000000000    15.1670000000      2
     6071  6036  6037  6038    1  180.0000000000    15.1670000000      2
     6014  6036  6071  6070    1  180.0000000000    15.1670000000      2
     6014  6036  6071  6072    1  180.0000000000    15.1670000000      2
     6037  6036  6071  6070    1  180.0000000000    15.1670000000      2
     6037  6036  6071  6072    1  180.0000000000    15.1670000000      2
     747   746   745   744     1  0.0000000000      0.0000000000       2
     748   746   745   744     1  0.0000000000      0.0000000000       2
     749   746   745   744     1  0.0000000000      0.0000000000       2
     2365  2367  2369  2370    1  0.0000000000      0.6508444444       3
     2365  2367  2369  2371    1  0.0000000000      0.6508444444       3
     2368  2367  2369  2370    1  0.0000000000      0.6508444444       3
     743   2367  2369  2370    1  0.0000000000      0.6508444444       3
     743   2367  2369  744     1  0.0000000000      0.6508444444       3
     2365  2367  2369  744     1  0.0000000000      0.6508444444       3
     2039  2063  2065  2043    1  0.0000000000      0.6508444444       3
     2039  2063  2065  2066    1  0.0000000000      0.6508444444       3
     2039  2063  2065  2067    1  0.0000000000      0.6508444444       3
     2061  2063  2065  2043    1  0.0000000000      0.6508444444       3
     2061  2063  2065  2066    1  0.0000000000      0.6508444444       3
     2061  2063  2065  2067    1  0.0000000000      0.6508444444       3
     2064  2063  2065  2043    1  0.0000000000      0.5439200000       3
     2064  2063  2065  2066    1  0.0000000000      0.5020800000       3
     2064  2063  2065  2067    1  0.0000000000      0.5020800000       3
     6049  6058  6059  6060    1  0.0000000000      0.0000000000       2
     6049  6058  6059  6061    1  0.0000000000      0.0000000000       2
     6049  6058  6059  6062    1  0.0000000000      0.0000000000       2
     6057  6058  6049  6047    1  180.0000000000    15.1670000000      2
     6059  6058  6057  6056    1  180.0000000000    15.1670000000      2
     6059  6058  6057  1470    1  180.0000000000    15.1670000000      2
     6049  6058  6057  1470    1  180.0000000000    15.1670000000      2
     744   745   736   734     1  180.0000000000    15.1670000000      2
     746   745   744   743     1  180.0000000000    15.1670000000      2
     736   745   746   747     1  0.0000000000      0.0000000000       2
     736   745   746   748     1  0.0000000000      0.0000000000       2
     736   745   746   749     1  0.0000000000      0.0000000000       2
     736   745   744   2369    1  180.0000000000    15.1670000000      2
     746   745   744   2369    1  180.0000000000    15.1670000000      2
     2367  2365  2363  2361    1  0.0000000000      2.1756800000       3
     2367  2365  2363  2364    1  0.0000000000      0.5439200000       3
     2367  2365  2363  2376    1  0.0000000000      0.6508444444       3
     2363  2365  2367  2368    1  0.0000000000      0.5439200000       3
     2363  2365  2367  2369    1  0.0000000000      2.1756800000       3
     2366  2365  2367  2368    1  0.0000000000      0.5020800000       3
     2366  2365  2367  2369    1  0.0000000000      0.5439200000       3
     2373  2365  2367  2368    1  0.0000000000      0.5439200000       3
     2373  2365  2367  2369    1  0.0000000000      2.1756800000       3
     2363  2365  2373  2371    1  0.0000000000      0.6508444444       3
     2363  2365  2373  2374    1  0.0000000000      0.6508444444       3
     2363  2365  2373  2375    1  0.0000000000      0.6508444444       3
     2366  2365  2373  2371    1  0.0000000000      0.5439200000       3
     2366  2365  2373  2374    1  0.0000000000      0.5020800000       3
     2366  2365  2373  2375    1  0.0000000000      0.5020800000       3
     2367  2365  2373  2374    1  0.0000000000      0.6508444444       3
     2367  2365  2373  2375    1  0.0000000000      0.6508444444       3
     2363  2365  2367  743     1  0.0000000000      0.6508444444       3
     2366  2365  2367  743     1  0.0000000000      0.6508444444       3
     2373  2365  2367  743     1  0.0000000000      0.6508444444       3
     743   744   745   736     1  180.0000000000    15.1670000000      2
     745   744   743   2367    1  180.0000000000    15.1670000000      2
     743   744   2369  2367    1  180.0000000000    1.0041600000       2
     745   744   2369  2367    1  180.0000000000    1.0041600000       2
     743   744   2369  2370    1  0.0000000000      0.0000000000       1
     745   744   2369  2370    1  0.0000000000      0.0000000000       1
     743   744   2369  2371    1  180.0000000000    1.0041600000       2
     745   744   2369  2371    1  180.0000000000    1.0041600000       2
     978   980   981   982     1  0.0000000000      0.0000000000       1
     978   980   981   983     1  180.0000000000    1.0041600000       2
     978   980   981   991     1  180.0000000000    1.0041600000       2
     996   980   981   982     1  0.0000000000      0.0000000000       1
     996   980   981   983     1  180.0000000000    1.0041600000       2
     996   980   981   991     1  180.0000000000    1.0041600000       2
     978   980   996   983     1  180.0000000000    15.1670000000      2
     978   980   996   997     1  180.0000000000    15.1670000000      2
     981   980   996   983     1  180.0000000000    15.1670000000      2
     981   980   996   997     1  180.0000000000    15.1670000000      2
     2365  2373  2371  2369    1  0.0000000000      0.6508444444       3
     2371  2373  2365  2367    1  0.0000000000      0.6508444444       3
     6043  6045  6047  6048    1  0.0000000000      0.5439200000       3
     6043  6045  6047  6049    1  0.0000000000      0.6508444444       3
     6043  6045  6047  6063    1  0.0000000000      2.1756800000       3
     6046  6045  6047  6048    1  0.0000000000      0.5020800000       3
     6046  6045  6047  6049    1  0.0000000000      0.6508444444       3
     6046  6045  6047  6063    1  0.0000000000      0.5439200000       3
     6067  6045  6047  6048    1  0.0000000000      0.5439200000       3
     6067  6045  6047  6049    1  0.0000000000      0.6508444444       3
     6067  6045  6047  6063    1  0.0000000000      2.1756800000       3
     6043  6045  6067  6065    1  0.0000000000      0.6508444444       3
     6043  6045  6067  6068    1  0.0000000000      0.6508444444       3
     6043  6045  6067  6069    1  0.0000000000      0.6508444444       3
     6046  6045  6067  6065    1  0.0000000000      0.5439200000       3
     6046  6045  6067  6068    1  0.0000000000      0.5020800000       3
     6046  6045  6067  6069    1  0.0000000000      0.5020800000       3
     6047  6045  6067  6065    1  0.0000000000      0.6508444444       3
     6047  6045  6067  6068    1  0.0000000000      0.6508444444       3
     6047  6045  6067  6069    1  0.0000000000      0.6508444444       3
     2045  2061  2063  2039    1  0.0000000000      2.1756800000       3
     2045  2061  2063  2064    1  0.0000000000      0.5439200000       3
     2045  2061  2063  2065    1  0.0000000000      2.1756800000       3
     2048  2061  2063  2039    1  0.0000000000      0.6508444444       3
     2048  2061  2063  2064    1  0.0000000000      0.6508444444       3
     2048  2061  2063  2065    1  0.0000000000      0.6508444444       3
     2062  2061  2063  2039    1  0.0000000000      0.5439200000       3
     2062  2061  2063  2064    1  0.0000000000      0.5020800000       3
     2062  2061  2063  2065    1  0.0000000000      0.5439200000       3
     5154  5159  5160  5161    1  180.0000000000    15.1670000000      2
     5154  5159  5160  989     1  180.0000000000    15.1670000000      2
     5154  5159  987   985     1  180.0000000000    1.0041600000       2
     5160  5159  987   985     1  180.0000000000    1.0041600000       2
     5154  5159  987   988     1  0.0000000000      0.0000000000       1
     5160  5159  987   988     1  0.0000000000      0.0000000000       1
     5154  5159  987   989     1  180.0000000000    1.0041600000       2
     5160  5159  987   989     1  180.0000000000    1.0041600000       2
     991   989   987   988     1  0.0000000000      0.6508444444       3
     5160  989   987   988     1  0.0000000000      0.6508444444       3
     5160  989   987   5159    1  0.0000000000      0.6508444444       3
     991   989   987   5159    1  0.0000000000      0.6508444444       3
     987   985   983   981     1  0.0000000000      2.1756800000       3
     987   985   983   984     1  0.0000000000      0.5439200000       3
     987   985   983   996     1  0.0000000000      0.6508444444       3
     983   985   987   988     1  0.0000000000      0.5439200000       3
     983   985   987   989     1  0.0000000000      2.1756800000       3
     986   985   987   988     1  0.0000000000      0.5020800000       3
     986   985   987   989     1  0.0000000000      0.5439200000       3
     993   985   987   988     1  0.0000000000      0.5439200000       3
     993   985   987   989     1  0.0000000000      2.1756800000       3
     983   985   993   991     1  0.0000000000      0.6508444444       3
     983   985   993   994     1  0.0000000000      0.6508444444       3
     983   985   993   995     1  0.0000000000      0.6508444444       3
     986   985   993   991     1  0.0000000000      0.5439200000       3
     986   985   993   994     1  0.0000000000      0.5020800000       3
     986   985   993   995     1  0.0000000000      0.5020800000       3
     987   985   993   994     1  0.0000000000      0.6508444444       3
     987   985   993   995     1  0.0000000000      0.6508444444       3
     983   985   987   5159    1  0.0000000000      0.6508444444       3
     986   985   987   5159    1  0.0000000000      0.6508444444       3
     993   985   987   5159    1  0.0000000000      0.6508444444       3
     743   738   737   750     1  180.0000000000    15.1670000000      2
     737   738   739   740     1  0.0000000000      0.0000000000       2
     737   738   739   741     1  0.0000000000      0.0000000000       2
     737   738   739   742     1  0.0000000000      0.0000000000       2
     737   738   743   744     1  180.0000000000    15.1670000000      2
     739   738   743   744     1  180.0000000000    15.1670000000      2
     737   738   743   2367    1  180.0000000000    15.1670000000      2
     739   738   743   2367    1  180.0000000000    15.1670000000      2
     2041  2043  2045  2046    1  0.0000000000      0.5439200000       3
     2041  2043  2045  2047    1  0.0000000000      0.6508444444       3
     2041  2043  2045  2061    1  0.0000000000      2.1756800000       3
     2044  2043  2045  2046    1  0.0000000000      0.5020800000       3
     2044  2043  2045  2047    1  0.0000000000      0.6508444444       3
     2044  2043  2045  2061    1  0.0000000000      0.5439200000       3
     2065  2043  2045  2046    1  0.0000000000      0.5439200000       3
     2065  2043  2045  2047    1  0.0000000000      0.6508444444       3
     2065  2043  2045  2061    1  0.0000000000      2.1756800000       3
     2041  2043  2065  2063    1  0.0000000000      0.6508444444       3
     2041  2043  2065  2066    1  0.0000000000      0.6508444444       3
     2041  2043  2065  2067    1  0.0000000000      0.6508444444       3
     2044  2043  2065  2063    1  0.0000000000      0.5439200000       3
     2044  2043  2065  2066    1  0.0000000000      0.5020800000       3
     2044  2043  2065  2067    1  0.0000000000      0.5020800000       3
     2045  2043  2065  2063    1  0.0000000000      0.6508444444       3
     2045  2043  2065  2066    1  0.0000000000      0.6508444444       3
     2045  2043  2065  2067    1  0.0000000000      0.6508444444       3
     976   977   978   979     1  180.0000000000    15.1670000000      2
     976   977   978   980     1  180.0000000000    15.1670000000      2
     999   977   978   979     1  180.0000000000    15.1670000000      2
     999   977   978   980     1  180.0000000000    15.1670000000      2
     976   977   999   1000    1  180.0000000000    4.1840000000       2
     976   977   999   1034    1  180.0000000000    4.1840000000       2
     978   977   999   1000    1  180.0000000000    4.1840000000       2
     978   977   999   1034    1  180.0000000000    4.1840000000       2
     1828  1829  1831  1832    1  180.0000000000    15.1670000000      2
     1828  1829  1831  1861    1  180.0000000000    15.1670000000      2
     1830  1829  1831  1832    1  180.0000000000    15.1670000000      2
     1830  1829  1831  1861    1  180.0000000000    15.1670000000      2
     5159  5160  5161  5152    1  180.0000000000    15.1670000000      2
     989   5160  5159  987     1  180.0000000000    15.1670000000      2
     5159  5160  989   987     1  180.0000000000    1.0041600000       2
     5161  5160  989   987     1  180.0000000000    1.0041600000       2
     5159  5160  989   990     1  0.0000000000      0.0000000000       1
     5161  5160  989   990     1  0.0000000000      0.0000000000       1
     5159  5160  989   991     1  180.0000000000    1.0041600000       2
     5161  5160  989   991     1  180.0000000000    1.0041600000       2
     5161  5160  5159  987     1  180.0000000000    15.1670000000      2
     5116  5117  5118  5119    1  180.0000000000    15.1670000000      2
     5116  5117  5118  5120    1  180.0000000000    15.1670000000      2
     5139  5117  5118  5119    1  180.0000000000    15.1670000000      2
     5139  5117  5118  5120    1  180.0000000000    15.1670000000      2
     5116  5117  5139  5140    1  180.0000000000    4.1840000000       2
     5116  5117  5139  5174    1  180.0000000000    4.1840000000       2
     5118  5117  5139  5140    1  180.0000000000    4.1840000000       2
     5118  5117  5139  5174    1  180.0000000000    4.1840000000       2
     981   983   985   986     1  0.0000000000      0.5439200000       3
     981   983   985   993     1  0.0000000000      2.1756800000       3
     984   983   985   986     1  0.0000000000      0.5020800000       3
     984   983   985   993     1  0.0000000000      0.5439200000       3
     996   983   985   986     1  0.0000000000      0.6508444444       3
     996   983   985   993     1  0.0000000000      0.6508444444       3
     981   983   996   980     1  180.0000000000    1.0041600000       2
     981   983   996   997     1  180.0000000000    1.0041600000       2
     984   983   996   980     1  0.0000000000      0.0000000000       1
     984   983   996   997     1  0.0000000000      0.0000000000       1
     985   983   996   980     1  180.0000000000    1.0041600000       2
     985   983   996   997     1  180.0000000000    1.0041600000       2
     985   987   989   990     1  0.0000000000      0.6508444444       3
     985   987   989   991     1  0.0000000000      0.6508444444       3
     988   987   989   990     1  0.0000000000      0.6508444444       3
     985   987   989   5160    1  0.0000000000      0.6508444444       3
     5159  987   989   990     1  0.0000000000      0.6508444444       3
     977   978   980   981     1  180.0000000000    15.1670000000      2
     977   978   980   996     1  180.0000000000    15.1670000000      2
     979   978   980   981     1  180.0000000000    15.1670000000      2
     979   978   980   996     1  180.0000000000    15.1670000000      2
     738   743   744   745     1  180.0000000000    15.1670000000      2
     2367  743   744   2369    1  180.0000000000    15.1670000000      2
     738   743   2367  2368    1  0.0000000000      0.0000000000       1
     744   743   2367  2368    1  0.0000000000      0.0000000000       1
     738   743   2367  2369    1  180.0000000000    1.0041600000       2
     744   743   2367  2369    1  180.0000000000    1.0041600000       2
     738   743   2367  2365    1  180.0000000000    1.0041600000       2
     744   743   2367  2365    1  180.0000000000    1.0041600000       2
     738   743   744   2369    1  180.0000000000    15.1670000000      2
     6060  6059  6058  6057    1  0.0000000000      0.0000000000       2
     6061  6059  6058  6057    1  0.0000000000      0.0000000000       2
     6062  6059  6058  6057    1  0.0000000000      0.0000000000       2
     980   981   983   984     1  0.0000000000      0.6508444444       3
     980   981   983   985     1  0.0000000000      0.6508444444       3
     980   981   983   996     1  0.0000000000      0.6508444444       3
     982   981   983   984     1  0.0000000000      0.6508444444       3
     982   981   983   985     1  0.0000000000      0.6508444444       3
     982   981   983   996     1  0.0000000000      0.6508444444       3
     991   981   983   984     1  0.0000000000      0.6508444444       3
     991   981   983   985     1  0.0000000000      0.6508444444       3
     991   981   983   996     1  0.0000000000      0.6508444444       3
     980   981   991   992     1  0.0000000000      0.6508444444       3
     980   981   991   993     1  0.0000000000      0.6508444444       3
     982   981   991   992     1  0.0000000000      0.5020800000       3
     982   981   991   993     1  0.0000000000      0.5439200000       3
     983   981   991   992     1  0.0000000000      0.5439200000       3
     983   981   991   993     1  0.0000000000      2.1756800000       3
     991   993   985   987     1  0.0000000000      0.6508444444       3
     985   993   991   989     1  0.0000000000      0.6508444444       3
     2039  2041  2043  2044    1  0.0000000000      0.5439200000       3
     2039  2041  2043  2045    1  0.0000000000      2.1756800000       3
     2039  2041  2043  2065    1  0.0000000000      2.1756800000       3
     2042  2041  2043  2044    1  0.0000000000      0.5020800000       3
     2042  2041  2043  2045    1  0.0000000000      0.5439200000       3
     2042  2041  2043  2065    1  0.0000000000      0.5439200000       3
     2068  2041  2043  2044    1  0.0000000000      0.6508444444       3
     2068  2041  2043  2045    1  0.0000000000      0.6508444444       3
     2068  2041  2043  2065    1  0.0000000000      0.6508444444       3
     2039  2041  2068  2038    1  180.0000000000    1.0041600000       2
     2039  2041  2068  2069    1  180.0000000000    1.0041600000       2
     2042  2041  2068  2038    1  0.0000000000      0.0000000000       1
     2042  2041  2068  2069    1  0.0000000000      0.0000000000       1
     2043  2041  2068  2038    1  180.0000000000    1.0041600000       2
     2043  2041  2068  2069    1  180.0000000000    1.0041600000       2
     6047  6063  6065  6041    1  0.0000000000      2.1756800000       3
     6047  6063  6065  6066    1  0.0000000000      0.5439200000       3
     6047  6063  6065  6067    1  0.0000000000      2.1756800000       3
     6050  6063  6065  6041    1  0.0000000000      0.6508444444       3
     6050  6063  6065  6066    1  0.0000000000      0.6508444444       3
     6050  6063  6065  6067    1  0.0000000000      0.6508444444       3
     6064  6063  6065  6041    1  0.0000000000      0.5439200000       3
     6064  6063  6065  6066    1  0.0000000000      0.5020800000       3
     6064  6063  6065  6067    1  0.0000000000      0.5439200000       3
     980   996   997   976     1  180.0000000000    15.1670000000      2
     980   996   997   998     1  180.0000000000    15.1670000000      2
     983   996   997   976     1  180.0000000000    15.1670000000      2
     983   996   997   998     1  180.0000000000    15.1670000000      2
     989   991   981   980     1  0.0000000000      0.6508444444       3
     989   991   981   982     1  0.0000000000      0.5439200000       3
     989   991   981   983     1  0.0000000000      2.1756800000       3
     981   991   989   987     1  0.0000000000      2.1756800000       3
     992   991   989   987     1  0.0000000000      0.5439200000       3
     993   991   989   987     1  0.0000000000      2.1756800000       3
     981   991   989   990     1  0.0000000000      0.5439200000       3
     992   991   989   990     1  0.0000000000      0.5020800000       3
     993   991   989   990     1  0.0000000000      0.5439200000       3
     981   991   993   985     1  0.0000000000      0.6508444444       3
     981   991   993   994     1  0.0000000000      0.6508444444       3
     981   991   993   995     1  0.0000000000      0.6508444444       3
     989   991   993   994     1  0.0000000000      0.6508444444       3
     989   991   993   995     1  0.0000000000      0.6508444444       3
     992   991   993   985     1  0.0000000000      0.5439200000       3
     992   991   993   994     1  0.0000000000      0.5020800000       3
     992   991   993   995     1  0.0000000000      0.5020800000       3
     981   991   989   5160    1  0.0000000000      0.6508444444       3
     992   991   989   5160    1  0.0000000000      0.6508444444       3
     993   991   989   5160    1  0.0000000000      0.6508444444       3
     2043  2045  2047  2048    1  180.0000000000    1.0041600000       2
     2043  2045  2047  2056    1  180.0000000000    1.0041600000       2
     2046  2045  2047  2048    1  0.0000000000      0.0000000000       1
     2046  2045  2047  2056    1  0.0000000000      0.0000000000       1
     2061  2045  2047  2048    1  180.0000000000    1.0041600000       2
     2061  2045  2047  2056    1  180.0000000000    1.0041600000       2
     2043  2045  2061  2048    1  0.0000000000      0.6508444444       3
     2043  2045  2061  2062    1  0.0000000000      0.6508444444       3
     2043  2045  2061  2063    1  0.0000000000      0.6508444444       3
     2046  2045  2061  2048    1  0.0000000000      0.6508444444       3
     2046  2045  2061  2062    1  0.0000000000      0.6508444444       3
     2046  2045  2061  2063    1  0.0000000000      0.6508444444       3
     2047  2045  2061  2048    1  0.0000000000      0.6508444444       3
     2047  2045  2061  2062    1  0.0000000000      0.6508444444       3
     2047  2045  2061  2063    1  0.0000000000      0.6508444444       3
     5160  5161  5152  5150    1  180.0000000000    15.1670000000      2
     5152  5161  5162  5163    1  0.0000000000      0.0000000000       2
     5152  5161  5162  5164    1  0.0000000000      0.0000000000       2
     5152  5161  5162  5165    1  0.0000000000      0.0000000000       2
     5162  5161  5160  5159    1  180.0000000000    15.1670000000      2
     5152  5161  5160  989     1  180.0000000000    15.1670000000      2
     5162  5161  5160  989     1  180.0000000000    15.1670000000      2
     6047  6049  6050  6051    1  180.0000000000    15.1670000000      2
     6047  6049  6050  6063    1  180.0000000000    15.1670000000      2
     6058  6049  6050  6051    1  180.0000000000    15.1670000000      2
     6058  6049  6050  6063    1  180.0000000000    15.1670000000      2
     6047  6049  6058  6059    1  180.0000000000    15.1670000000      2
     6050  6049  6058  6057    1  180.0000000000    15.1670000000      2
     6050  6049  6058  6059    1  180.0000000000    15.1670000000      2
     6045  6047  6049  6050    1  180.0000000000    1.0041600000       2
     6045  6047  6049  6058    1  180.0000000000    1.0041600000       2
     6048  6047  6049  6050    1  0.0000000000      0.0000000000       1
     6048  6047  6049  6058    1  0.0000000000      0.0000000000       1
     6063  6047  6049  6050    1  180.0000000000    1.0041600000       2
     6063  6047  6049  6058    1  180.0000000000    1.0041600000       2
     6045  6047  6063  6050    1  0.0000000000      0.6508444444       3
     6045  6047  6063  6064    1  0.0000000000      0.6508444444       3
     6045  6047  6063  6065    1  0.0000000000      0.6508444444       3
     6048  6047  6063  6050    1  0.0000000000      0.6508444444       3
     6048  6047  6063  6064    1  0.0000000000      0.6508444444       3
     6048  6047  6063  6065    1  0.0000000000      0.6508444444       3
     6049  6047  6063  6050    1  0.0000000000      0.6508444444       3
     6049  6047  6063  6064    1  0.0000000000      0.6508444444       3
     6049  6047  6063  6065    1  0.0000000000      0.6508444444       3
     5163  5162  5161  5160    1  0.0000000000      0.0000000000       2
     5164  5162  5161  5160    1  0.0000000000      0.0000000000       2
     5165  5162  5161  5160    1  0.0000000000      0.0000000000       2
     5111  5116  5117  5118    1  180.0000000000    15.1670000000      2
     5111  5116  5117  5139    1  180.0000000000    15.1670000000      2
     5137  5116  5117  5118    1  180.0000000000    15.1670000000      2
     5137  5116  5117  5139    1  180.0000000000    15.1670000000      2
     5111  5116  5137  5136    1  180.0000000000    15.1670000000      2
     5111  5116  5137  5138    1  180.0000000000    15.1670000000      2
     5117  5116  5137  5136    1  180.0000000000    15.1670000000      2
     5117  5116  5137  5138    1  180.0000000000    15.1670000000      2
     2047  2048  2049  2050    1  180.0000000000    15.1670000000      2
     2047  2048  2049  2054    1  180.0000000000    15.1670000000      2
     2061  2048  2049  2050    1  180.0000000000    15.1670000000      2
     2047  2048  2061  2045    1  180.0000000000    1.0041600000       2
     2047  2048  2061  2062    1  0.0000000000      0.0000000000       1
     2047  2048  2061  2063    1  180.0000000000    1.0041600000       2
     2049  2048  2061  2045    1  180.0000000000    1.0041600000       2
     2049  2048  2061  2062    1  0.0000000000      0.0000000000       1
     2049  2048  2061  2063    1  180.0000000000    1.0041600000       2
     6419  6418  6422  6423    1  0.0000000000      0.5439200000       3
     6419  6418  6422  6427    1  0.0000000000      0.6508444444       3
     6419  6418  6422  6451    1  0.0000000000      0.6508444444       3
     6420  6418  6422  6423    1  0.0000000000      0.5439200000       3
     6420  6418  6422  6427    1  0.0000000000      0.6508444444       3
     6420  6418  6422  6451    1  0.0000000000      0.6508444444       3
     6421  6418  6422  6423    1  0.0000000000      0.5439200000       3
     6421  6418  6422  6427    1  0.0000000000      0.6508444444       3
     6421  6418  6422  6451    1  0.0000000000      0.6508444444       3
     6418  6422  6423  6424    1  0.0000000000      0.5439200000       3
     6418  6422  6423  6425    1  0.0000000000      0.5439200000       3
     6418  6422  6423  6426    1  0.0000000000      0.5439200000       3
     6427  6422  6423  6424    1  0.0000000000      0.6508444444       3
     6427  6422  6423  6425    1  0.0000000000      0.6508444444       3
     6427  6422  6423  6426    1  0.0000000000      0.6508444444       3
     6451  6422  6423  6424    1  0.0000000000      0.6508444444       3
     6451  6422  6423  6425    1  0.0000000000      0.6508444444       3
     6451  6422  6423  6426    1  0.0000000000      0.6508444444       3
     6418  6422  6427  6428    1  0.0000000000      0.0000000000       2
     6418  6422  6427  6448    1  180.0000000000    1.0041600000       2
     6423  6422  6427  6428    1  0.0000000000      0.0000000000       2
     6423  6422  6427  6448    1  180.0000000000    1.0041600000       2
     6451  6422  6427  6428    1  0.0000000000      0.0000000000       2
     6451  6422  6427  6448    1  180.0000000000    0.0000000000       2
     6418  6422  6451  6450    1  0.0000000000      0.0000000000       2
     6418  6422  6451  6452    1  180.0000000000    1.0041600000       2
     6423  6422  6451  6450    1  0.0000000000      0.0000000000       2
     6423  6422  6451  6452    1  180.0000000000    1.0041600000       2
     6427  6422  6451  6450    1  0.0000000000      0.0000000000       2
     6427  6422  6451  6452    1  180.0000000000    0.0000000000       2
     6422  6427  6428  6429    1  180.0000000000    15.1670000000      2
     6422  6427  6428  6450    1  180.0000000000    15.1670000000      2
     6448  6427  6428  6429    1  180.0000000000    15.1670000000      2
     6448  6427  6428  6450    1  180.0000000000    15.1670000000      2
     6422  6427  6448  6447    1  180.0000000000    15.1670000000      2
     6422  6427  6448  6449    1  180.0000000000    15.1670000000      2
     6428  6427  6448  6447    1  180.0000000000    15.1670000000      2
     6428  6427  6448  6449    1  180.0000000000    15.1670000000      2
     1003  1004  1006  1007    1  0.0000000000      0.6508444444       3
     1003  1004  1006  1008    1  0.0000000000      0.6508444444       3
     1003  1004  1006  1033    1  0.0000000000      0.6508444444       3
     1005  1004  1006  1007    1  0.0000000000      0.6508444444       3
     1005  1004  1006  1008    1  0.0000000000      0.6508444444       3
     1005  1004  1006  1033    1  0.0000000000      0.6508444444       3
     1028  1004  1006  1007    1  0.0000000000      0.6508444444       3
     1028  1004  1006  1008    1  0.0000000000      0.6508444444       3
     1028  1004  1006  1033    1  0.0000000000      0.6508444444       3
     1003  1004  1028  1026    1  0.0000000000      0.6508444444       3
     1003  1004  1028  1029    1  0.0000000000      0.6508444444       3
     1003  1004  1028  1030    1  0.0000000000      0.6508444444       3
     1005  1004  1028  1026    1  0.0000000000      0.5439200000       3
     1005  1004  1028  1029    1  0.0000000000      0.5020800000       3
     1005  1004  1028  1030    1  0.0000000000      0.5439200000       3
     1006  1004  1028  1026    1  0.0000000000      2.1756800000       3
     1006  1004  1028  1029    1  0.0000000000      0.5439200000       3
     1006  1004  1028  1030    1  0.0000000000      2.1756800000       3
     1004  1028  1030  1008    1  0.0000000000      0.6508444444       3
     1004  1028  1030  1031    1  0.0000000000      0.6508444444       3
     1004  1028  1030  1032    1  0.0000000000      0.6508444444       3
     1026  1028  1030  1008    1  0.0000000000      0.6508444444       3
     1026  1028  1030  1031    1  0.0000000000      0.6508444444       3
     1026  1028  1030  1032    1  0.0000000000      0.6508444444       3
     1029  1028  1030  1008    1  0.0000000000      0.5439200000       3
     1029  1028  1030  1031    1  0.0000000000      0.5020800000       3
     1029  1028  1030  1032    1  0.0000000000      0.5020800000       3
     1010  1026  1028  1004    1  0.0000000000      2.1756800000       3
     1010  1026  1028  1029    1  0.0000000000      0.5439200000       3
     1010  1026  1028  1030    1  0.0000000000      2.1756800000       3
     1013  1026  1028  1004    1  0.0000000000      0.6508444444       3
     1013  1026  1028  1029    1  0.0000000000      0.6508444444       3
     1013  1026  1028  1030    1  0.0000000000      0.6508444444       3
     1027  1026  1028  1004    1  0.0000000000      0.5439200000       3
     1027  1026  1028  1029    1  0.0000000000      0.5020800000       3
     1027  1026  1028  1030    1  0.0000000000      0.5439200000       3
     1012  1013  1014  1015    1  180.0000000000    15.1670000000      2
     1012  1013  1014  1019    1  180.0000000000    15.1670000000      2
     1026  1013  1014  1015    1  180.0000000000    15.1670000000      2
     1012  1013  1026  1010    1  180.0000000000    1.0041600000       2
     1012  1013  1026  1027    1  0.0000000000      0.0000000000       1
     1012  1013  1026  1028    1  180.0000000000    1.0041600000       2
     1014  1013  1026  1010    1  180.0000000000    1.0041600000       2
     1014  1013  1026  1027    1  0.0000000000      0.0000000000       1
     1014  1013  1026  1028    1  180.0000000000    1.0041600000       2
     1001  1003  1004  1005    1  0.0000000000      0.0000000000       1
     1001  1003  1004  1006    1  180.0000000000    1.0041600000       2
     1001  1003  1004  1028    1  180.0000000000    1.0041600000       2
     1033  1003  1004  1005    1  0.0000000000      0.0000000000       1
     1033  1003  1004  1006    1  180.0000000000    1.0041600000       2
     1033  1003  1004  1028    1  180.0000000000    1.0041600000       2
     1001  1003  1033  1006    1  180.0000000000    15.1670000000      2
     1001  1003  1033  1034    1  180.0000000000    15.1670000000      2
     1004  1003  1033  1006    1  180.0000000000    15.1670000000      2
     1004  1003  1033  1034    1  180.0000000000    15.1670000000      2
     50    49    48    53      1  0.0000000000      0.0000000000       2
     51    49    48    53      1  0.0000000000      0.0000000000       2
     52    49    48    53      1  0.0000000000      0.0000000000       2
     4868  4870  4872  4873    1  0.0000000000      0.5439200000       3
     4868  4870  4872  4874    1  0.0000000000      2.1756800000       3
     4868  4870  4872  4894    1  0.0000000000      2.1756800000       3
     4871  4870  4872  4873    1  0.0000000000      0.5020800000       3
     4871  4870  4872  4874    1  0.0000000000      0.5439200000       3
     4871  4870  4872  4894    1  0.0000000000      0.5439200000       3
     4897  4870  4872  4873    1  0.0000000000      0.6508444444       3
     4897  4870  4872  4874    1  0.0000000000      0.6508444444       3
     4897  4870  4872  4894    1  0.0000000000      0.6508444444       3
     4868  4870  4897  4867    1  180.0000000000    1.0041600000       2
     4868  4870  4897  4898    1  180.0000000000    1.0041600000       2
     4871  4870  4897  4867    1  0.0000000000      0.0000000000       1
     4871  4870  4897  4898    1  0.0000000000      0.0000000000       1
     4872  4870  4897  4867    1  180.0000000000    1.0041600000       2
     4872  4870  4897  4898    1  180.0000000000    1.0041600000       2
     4867  4868  4870  4871    1  0.0000000000      0.6508444444       3
     4867  4868  4870  4872    1  0.0000000000      0.6508444444       3
     4867  4868  4870  4897    1  0.0000000000      0.6508444444       3
     4869  4868  4870  4871    1  0.0000000000      0.6508444444       3
     4869  4868  4870  4872    1  0.0000000000      0.6508444444       3
     4869  4868  4870  4897    1  0.0000000000      0.6508444444       3
     4892  4868  4870  4871    1  0.0000000000      0.6508444444       3
     4892  4868  4870  4872    1  0.0000000000      0.6508444444       3
     4892  4868  4870  4897    1  0.0000000000      0.6508444444       3
     4867  4868  4892  4890    1  0.0000000000      0.6508444444       3
     4867  4868  4892  4893    1  0.0000000000      0.6508444444       3
     4867  4868  4892  4894    1  0.0000000000      0.6508444444       3
     4869  4868  4892  4890    1  0.0000000000      0.5439200000       3
     4869  4868  4892  4893    1  0.0000000000      0.5020800000       3
     4869  4868  4892  4894    1  0.0000000000      0.5439200000       3
     4870  4868  4892  4890    1  0.0000000000      2.1756800000       3
     4870  4868  4892  4893    1  0.0000000000      0.5439200000       3
     4870  4868  4892  4894    1  0.0000000000      2.1756800000       3
     5570  5569  5568  5573    1  0.0000000000      0.0000000000       2
     5571  5569  5568  5573    1  0.0000000000      0.0000000000       2
     5572  5569  5568  5573    1  0.0000000000      0.0000000000       2
     6431  6447  6448  6427    1  180.0000000000    15.1670000000      2
     6431  6447  6448  6449    1  180.0000000000    15.1670000000      2
     6434  6447  6448  6427    1  180.0000000000    15.1670000000      2
     6434  6447  6448  6449    1  180.0000000000    15.1670000000      2
     1010  1012  1013  1014    1  180.0000000000    15.1670000000      2
     1010  1012  1013  1026    1  180.0000000000    15.1670000000      2
     1021  1012  1013  1014    1  180.0000000000    15.1670000000      2
     1021  1012  1013  1026    1  180.0000000000    15.1670000000      2
     1010  1012  1021  1022    1  180.0000000000    15.1670000000      2
     1013  1012  1021  1020    1  180.0000000000    15.1670000000      2
     1013  1012  1021  1022    1  180.0000000000    15.1670000000      2
     1019  1014  1013  1026    1  180.0000000000    15.1670000000      2
     1013  1014  1015  1016    1  0.0000000000      0.0000000000       2
     1013  1014  1015  1017    1  0.0000000000      0.0000000000       2
     1013  1014  1015  1018    1  0.0000000000      0.0000000000       2
     1013  1014  1019  1020    1  180.0000000000    15.1670000000      2
     1015  1014  1019  1020    1  180.0000000000    15.1670000000      2
     1013  1014  1019  5334    1  180.0000000000    15.1670000000      2
     1015  1014  1019  5334    1  180.0000000000    15.1670000000      2
     6429  6431  6432  6433    1  0.0000000000      0.0000000000       1
     6429  6431  6432  6434    1  180.0000000000    1.0041600000       2
     6429  6431  6432  6442    1  180.0000000000    1.0041600000       2
     6447  6431  6432  6433    1  0.0000000000      0.0000000000       1
     6447  6431  6432  6434    1  180.0000000000    1.0041600000       2
     6447  6431  6432  6442    1  180.0000000000    1.0041600000       2
     6429  6431  6447  6434    1  180.0000000000    15.1670000000      2
     6429  6431  6447  6448    1  180.0000000000    15.1670000000      2
     6432  6431  6447  6434    1  180.0000000000    15.1670000000      2
     6432  6431  6447  6448    1  180.0000000000    15.1670000000      2
     6428  6429  6431  6432    1  180.0000000000    15.1670000000      2
     6428  6429  6431  6447    1  180.0000000000    15.1670000000      2
     6430  6429  6431  6432    1  180.0000000000    15.1670000000      2
     6430  6429  6431  6447    1  180.0000000000    15.1670000000      2
     1000  1001  1003  1004    1  180.0000000000    15.1670000000      2
     1000  1001  1003  1033    1  180.0000000000    15.1670000000      2
     1002  1001  1003  1004    1  180.0000000000    15.1670000000      2
     1002  1001  1003  1033    1  180.0000000000    15.1670000000      2
     38    62    64    42      1  0.0000000000      0.6508444444       3
     38    62    64    65      1  0.0000000000      0.6508444444       3
     38    62    64    66      1  0.0000000000      0.6508444444       3
     60    62    64    42      1  0.0000000000      0.6508444444       3
     60    62    64    65      1  0.0000000000      0.6508444444       3
     60    62    64    66      1  0.0000000000      0.6508444444       3
     63    62    64    42      1  0.0000000000      0.5439200000       3
     63    62    64    65      1  0.0000000000      0.5020800000       3
     63    62    64    66      1  0.0000000000      0.5020800000       3
     6427  6428  6429  6430    1  180.0000000000    15.1670000000      2
     6427  6428  6429  6431    1  180.0000000000    15.1670000000      2
     6450  6428  6429  6430    1  180.0000000000    15.1670000000      2
     6450  6428  6429  6431    1  180.0000000000    15.1670000000      2
     6427  6428  6450  6451    1  180.0000000000    4.1840000000       2
     6427  6428  6450  6485    1  180.0000000000    4.1840000000       2
     6429  6428  6450  6451    1  180.0000000000    4.1840000000       2
     6429  6428  6450  6485    1  180.0000000000    4.1840000000       2
     4867  4897  4898  4863    1  180.0000000000    15.1670000000      2
     4867  4897  4898  4899    1  180.0000000000    15.1670000000      2
     4870  4897  4898  4863    1  180.0000000000    15.1670000000      2
     4870  4897  4898  4899    1  180.0000000000    15.1670000000      2
     6750  6749  6748  6747    1  0.0000000000      0.0000000000       2
     6751  6749  6748  6747    1  0.0000000000      0.0000000000       2
     6752  6749  6748  6747    1  0.0000000000      0.0000000000       2
     1004  1006  1008  1009    1  0.0000000000      0.5439200000       3
     1004  1006  1008  1010    1  0.0000000000      2.1756800000       3
     1004  1006  1008  1030    1  0.0000000000      2.1756800000       3
     1007  1006  1008  1009    1  0.0000000000      0.5020800000       3
     1007  1006  1008  1010    1  0.0000000000      0.5439200000       3
     1007  1006  1008  1030    1  0.0000000000      0.5439200000       3
     1033  1006  1008  1009    1  0.0000000000      0.6508444444       3
     1033  1006  1008  1010    1  0.0000000000      0.6508444444       3
     1033  1006  1008  1030    1  0.0000000000      0.6508444444       3
     1004  1006  1033  1003    1  180.0000000000    1.0041600000       2
     1004  1006  1033  1034    1  180.0000000000    1.0041600000       2
     1007  1006  1033  1003    1  0.0000000000      0.0000000000       1
     1007  1006  1033  1034    1  0.0000000000      0.0000000000       1
     1008  1006  1033  1003    1  180.0000000000    1.0041600000       2
     1008  1006  1033  1034    1  180.0000000000    1.0041600000       2
     44    60    62    38      1  0.0000000000      2.1756800000       3
     44    60    62    63      1  0.0000000000      0.5439200000       3
     44    60    62    64      1  0.0000000000      2.1756800000       3
     47    60    62    38      1  0.0000000000      0.6508444444       3
     47    60    62    63      1  0.0000000000      0.6508444444       3
     47    60    62    64      1  0.0000000000      0.6508444444       3
     61    60    62    38      1  0.0000000000      0.5439200000       3
     61    60    62    63      1  0.0000000000      0.5020800000       3
     61    60    62    64      1  0.0000000000      0.5439200000       3
     1003  1033  1034  999     1  180.0000000000    15.1670000000      2
     1003  1033  1034  1035    1  180.0000000000    15.1670000000      2
     1006  1033  1034  999     1  180.0000000000    15.1670000000      2
     1006  1033  1034  1035    1  180.0000000000    15.1670000000      2
     53    48    47    60      1  180.0000000000    15.1670000000      2
     47    48    49    50      1  0.0000000000      0.0000000000       2
     47    48    49    51      1  0.0000000000      0.0000000000       2
     47    48    49    52      1  0.0000000000      0.0000000000       2
     47    48    53    54      1  180.0000000000    15.1670000000      2
     49    48    53    54      1  180.0000000000    15.1670000000      2
     47    48    53    918     1  180.0000000000    15.1670000000      2
     49    48    53    918     1  180.0000000000    15.1670000000      2
     1020  1021  1012  1010    1  180.0000000000    15.1670000000      2
     1022  1021  1020  1019    1  180.0000000000    15.1670000000      2
     1012  1021  1022  1023    1  0.0000000000      0.0000000000       2
     1012  1021  1022  1024    1  0.0000000000      0.0000000000       2
     1012  1021  1022  1025    1  0.0000000000      0.0000000000       2
     1012  1021  1020  5336    1  180.0000000000    15.1670000000      2
     1022  1021  1020  5336    1  180.0000000000    15.1670000000      2
     1008  1010  1012  1013    1  180.0000000000    1.0041600000       2
     1008  1010  1012  1021    1  180.0000000000    1.0041600000       2
     1011  1010  1012  1013    1  0.0000000000      0.0000000000       1
     1011  1010  1012  1021    1  0.0000000000      0.0000000000       1
     1026  1010  1012  1013    1  180.0000000000    1.0041600000       2
     1026  1010  1012  1021    1  180.0000000000    1.0041600000       2
     1008  1010  1026  1013    1  0.0000000000      0.6508444444       3
     1008  1010  1026  1027    1  0.0000000000      0.6508444444       3
     1008  1010  1026  1028    1  0.0000000000      0.6508444444       3
     1011  1010  1026  1013    1  0.0000000000      0.6508444444       3
     1011  1010  1026  1027    1  0.0000000000      0.6508444444       3
     1011  1010  1026  1028    1  0.0000000000      0.6508444444       3
     1012  1010  1026  1013    1  0.0000000000      0.6508444444       3
     1012  1010  1026  1027    1  0.0000000000      0.6508444444       3
     1012  1010  1026  1028    1  0.0000000000      0.6508444444       3
     4865  4867  4868  4869    1  0.0000000000      0.0000000000       1
     4865  4867  4868  4870    1  180.0000000000    1.0041600000       2
     4865  4867  4868  4892    1  180.0000000000    1.0041600000       2
     4897  4867  4868  4869    1  0.0000000000      0.0000000000       1
     4897  4867  4868  4870    1  180.0000000000    1.0041600000       2
     4897  4867  4868  4892    1  180.0000000000    1.0041600000       2
     4865  4867  4897  4870    1  180.0000000000    15.1670000000      2
     4865  4867  4897  4898    1  180.0000000000    15.1670000000      2
     4868  4867  4897  4870    1  180.0000000000    15.1670000000      2
     4868  4867  4897  4898    1  180.0000000000    15.1670000000      2
     1016  1015  1014  1019    1  0.0000000000      0.0000000000       2
     1017  1015  1014  1019    1  0.0000000000      0.0000000000       2
     1018  1015  1014  1019    1  0.0000000000      0.0000000000       2
     4868  4892  4894  4872    1  0.0000000000      0.6508444444       3
     4868  4892  4894  4895    1  0.0000000000      0.6508444444       3
     4868  4892  4894  4896    1  0.0000000000      0.6508444444       3
     4890  4892  4894  4872    1  0.0000000000      0.6508444444       3
     4890  4892  4894  4895    1  0.0000000000      0.6508444444       3
     4890  4892  4894  4896    1  0.0000000000      0.6508444444       3
     4893  4892  4894  4872    1  0.0000000000      0.5439200000       3
     4893  4892  4894  4895    1  0.0000000000      0.5020800000       3
     4893  4892  4894  4896    1  0.0000000000      0.5020800000       3
     4870  4872  4874  4875    1  0.0000000000      0.5439200000       3
     4870  4872  4874  4876    1  0.0000000000      0.6508444444       3
     4870  4872  4874  4890    1  0.0000000000      2.1756800000       3
     4873  4872  4874  4875    1  0.0000000000      0.5020800000       3
     4873  4872  4874  4876    1  0.0000000000      0.6508444444       3
     4873  4872  4874  4890    1  0.0000000000      0.5439200000       3
     4894  4872  4874  4875    1  0.0000000000      0.5439200000       3
     4894  4872  4874  4876    1  0.0000000000      0.6508444444       3
     4894  4872  4874  4890    1  0.0000000000      2.1756800000       3
     4870  4872  4894  4892    1  0.0000000000      0.6508444444       3
     4870  4872  4894  4895    1  0.0000000000      0.6508444444       3
     4870  4872  4894  4896    1  0.0000000000      0.6508444444       3
     4873  4872  4894  4892    1  0.0000000000      0.5439200000       3
     4873  4872  4894  4895    1  0.0000000000      0.5020800000       3
     4873  4872  4894  4896    1  0.0000000000      0.5020800000       3
     4874  4872  4894  4892    1  0.0000000000      0.6508444444       3
     4874  4872  4894  4895    1  0.0000000000      0.6508444444       3
     4874  4872  4894  4896    1  0.0000000000      0.6508444444       3
     6442  6444  6436  6438    1  0.0000000000      0.6508444444       3
     6436  6444  6442  6440    1  0.0000000000      0.6508444444       3
     1125  1123  1121  1119    1  0.0000000000      2.1756800000       3
     1125  1123  1121  1122    1  0.0000000000      0.5439200000       3
     1125  1123  1121  1134    1  0.0000000000      0.6508444444       3
     1121  1123  1125  1126    1  0.0000000000      0.5439200000       3
     1121  1123  1125  1127    1  0.0000000000      2.1756800000       3
     1124  1123  1125  1126    1  0.0000000000      0.5020800000       3
     1124  1123  1125  1127    1  0.0000000000      0.5439200000       3
     1131  1123  1125  1126    1  0.0000000000      0.5439200000       3
     1131  1123  1125  1127    1  0.0000000000      2.1756800000       3
     1121  1123  1131  1129    1  0.0000000000      0.6508444444       3
     1121  1123  1131  1132    1  0.0000000000      0.6508444444       3
     1121  1123  1131  1133    1  0.0000000000      0.6508444444       3
     1124  1123  1131  1129    1  0.0000000000      0.5439200000       3
     1124  1123  1131  1132    1  0.0000000000      0.5020800000       3
     1124  1123  1131  1133    1  0.0000000000      0.5020800000       3
     1125  1123  1131  1132    1  0.0000000000      0.6508444444       3
     1125  1123  1131  1133    1  0.0000000000      0.6508444444       3
     1121  1123  1125  4883    1  0.0000000000      0.6508444444       3
     1124  1123  1125  4883    1  0.0000000000      0.6508444444       3
     1131  1123  1125  4883    1  0.0000000000      0.6508444444       3
     4878  4883  4884  4885    1  180.0000000000    15.1670000000      2
     4878  4883  4884  1127    1  180.0000000000    15.1670000000      2
     4884  4883  1125  1123    1  180.0000000000    1.0041600000       2
     4878  4883  1125  1123    1  180.0000000000    1.0041600000       2
     4884  4883  1125  1126    1  0.0000000000      0.0000000000       1
     4878  4883  1125  1126    1  0.0000000000      0.0000000000       1
     4884  4883  1125  1127    1  180.0000000000    1.0041600000       2
     4878  4883  1125  1127    1  180.0000000000    1.0041600000       2
     4874  4890  4892  4868    1  0.0000000000      2.1756800000       3
     4874  4890  4892  4893    1  0.0000000000      0.5439200000       3
     4874  4890  4892  4894    1  0.0000000000      2.1756800000       3
     4877  4890  4892  4868    1  0.0000000000      0.6508444444       3
     4877  4890  4892  4893    1  0.0000000000      0.6508444444       3
     4877  4890  4892  4894    1  0.0000000000      0.6508444444       3
     4891  4890  4892  4868    1  0.0000000000      0.5439200000       3
     4891  4890  4892  4893    1  0.0000000000      0.5020800000       3
     4891  4890  4892  4894    1  0.0000000000      0.5439200000       3
     977   999   1000  971     1  180.0000000000    15.1670000000      2
     977   999   1000  1001    1  180.0000000000    15.1670000000      2
     1034  999   1000  971     1  180.0000000000    15.1670000000      2
     1034  999   1000  1001    1  180.0000000000    15.1670000000      2
     977   999   1034  1033    1  180.0000000000    15.1670000000      2
     977   999   1034  1035    1  180.0000000000    15.1670000000      2
     1000  999   1034  1033    1  180.0000000000    15.1670000000      2
     1000  999   1034  1035    1  180.0000000000    15.1670000000      2
     4883  4878  4877  4890    1  180.0000000000    15.1670000000      2
     4877  4878  4879  4880    1  0.0000000000      0.0000000000       2
     4877  4878  4879  4881    1  0.0000000000      0.0000000000       2
     4877  4878  4879  4882    1  0.0000000000      0.0000000000       2
     4877  4878  4883  4884    1  180.0000000000    15.1670000000      2
     4879  4878  4883  4884    1  180.0000000000    15.1670000000      2
     4877  4878  4883  1125    1  180.0000000000    15.1670000000      2
     4879  4878  4883  1125    1  180.0000000000    15.1670000000      2
     4604  4603  4602  4607    1  0.0000000000      0.0000000000       2
     4605  4603  4602  4607    1  0.0000000000      0.0000000000       2
     4606  4603  4602  4607    1  0.0000000000      0.0000000000       2
     4607  4602  4601  4614    1  180.0000000000    15.1670000000      2
     4601  4602  4603  4604    1  0.0000000000      0.0000000000       2
     4601  4602  4603  4605    1  0.0000000000      0.0000000000       2
     4601  4602  4603  4606    1  0.0000000000      0.0000000000       2
     4601  4602  4607  4608    1  180.0000000000    15.1670000000      2
     4603  4602  4607  4608    1  180.0000000000    15.1670000000      2
     4601  4602  4607  6438    1  180.0000000000    15.1670000000      2
     4603  4602  4607  6438    1  180.0000000000    15.1670000000      2
     6436  6438  6440  6441    1  0.0000000000      0.6508444444       3
     6436  6438  6440  6442    1  0.0000000000      0.6508444444       3
     6439  6438  6440  6441    1  0.0000000000      0.6508444444       3
     6436  6438  6440  4608    1  0.0000000000      0.6508444444       3
     4607  6438  6440  6441    1  0.0000000000      0.6508444444       3
     967   971   972   973     1  0.0000000000      0.5439200000       3
     967   971   972   974     1  0.0000000000      0.5439200000       3
     967   971   972   975     1  0.0000000000      0.5439200000       3
     976   971   972   973     1  0.0000000000      0.6508444444       3
     976   971   972   974     1  0.0000000000      0.6508444444       3
     976   971   972   975     1  0.0000000000      0.6508444444       3
     1000  971   972   973     1  0.0000000000      0.6508444444       3
     1000  971   972   974     1  0.0000000000      0.6508444444       3
     1000  971   972   975     1  0.0000000000      0.6508444444       3
     967   971   976   977     1  0.0000000000      0.0000000000       2
     967   971   976   997     1  180.0000000000    1.0041600000       2
     972   971   976   977     1  0.0000000000      0.0000000000       2
     972   971   976   997     1  180.0000000000    1.0041600000       2
     1000  971   976   977     1  0.0000000000      0.0000000000       2
     1000  971   976   997     1  180.0000000000    0.0000000000       2
     967   971   1000  999     1  0.0000000000      0.0000000000       2
     967   971   1000  1001    1  180.0000000000    1.0041600000       2
     972   971   1000  999     1  0.0000000000      0.0000000000       2
     972   971   1000  1001    1  180.0000000000    1.0041600000       2
     976   971   1000  999     1  0.0000000000      0.0000000000       2
     976   971   1000  1001    1  180.0000000000    0.0000000000       2
     6432  6434  6436  6437    1  0.0000000000      0.5439200000       3
     6432  6434  6436  6444    1  0.0000000000      2.1756800000       3
     6435  6434  6436  6437    1  0.0000000000      0.5020800000       3
     6435  6434  6436  6444    1  0.0000000000      0.5439200000       3
     6447  6434  6436  6437    1  0.0000000000      0.6508444444       3
     6447  6434  6436  6444    1  0.0000000000      0.6508444444       3
     6432  6434  6447  6431    1  180.0000000000    1.0041600000       2
     6432  6434  6447  6448    1  180.0000000000    1.0041600000       2
     6435  6434  6447  6431    1  0.0000000000      0.0000000000       1
     6435  6434  6447  6448    1  0.0000000000      0.0000000000       1
     6436  6434  6447  6431    1  180.0000000000    1.0041600000       2
     6436  6434  6447  6448    1  180.0000000000    1.0041600000       2
     6431  6432  6434  6435    1  0.0000000000      0.6508444444       3
     6431  6432  6434  6436    1  0.0000000000      0.6508444444       3
     6431  6432  6434  6447    1  0.0000000000      0.6508444444       3
     6433  6432  6434  6435    1  0.0000000000      0.6508444444       3
     6433  6432  6434  6436    1  0.0000000000      0.6508444444       3
     6433  6432  6434  6447    1  0.0000000000      0.6508444444       3
     6442  6432  6434  6435    1  0.0000000000      0.6508444444       3
     6442  6432  6434  6436    1  0.0000000000      0.6508444444       3
     6442  6432  6434  6447    1  0.0000000000      0.6508444444       3
     6431  6432  6442  6443    1  0.0000000000      0.6508444444       3
     6431  6432  6442  6444    1  0.0000000000      0.6508444444       3
     6433  6432  6442  6443    1  0.0000000000      0.5020800000       3
     6433  6432  6442  6444    1  0.0000000000      0.5439200000       3
     6434  6432  6442  6443    1  0.0000000000      0.5439200000       3
     6434  6432  6442  6444    1  0.0000000000      2.1756800000       3
     4608  4609  4600  4598    1  180.0000000000    15.1670000000      2
     4610  4609  4608  4607    1  180.0000000000    15.1670000000      2
     4600  4609  4610  4611    1  0.0000000000      0.0000000000       2
     4600  4609  4610  4612    1  0.0000000000      0.0000000000       2
     4600  4609  4610  4613    1  0.0000000000      0.0000000000       2
     4600  4609  4608  6440    1  180.0000000000    15.1670000000      2
     4610  4609  4608  6440    1  180.0000000000    15.1670000000      2
     4592  4616  4618  4596    1  0.0000000000      0.6508444444       3
     4592  4616  4618  4619    1  0.0000000000      0.6508444444       3
     4592  4616  4618  4620    1  0.0000000000      0.6508444444       3
     4614  4616  4618  4596    1  0.0000000000      0.6508444444       3
     4614  4616  4618  4619    1  0.0000000000      0.6508444444       3
     4614  4616  4618  4620    1  0.0000000000      0.6508444444       3
     4617  4616  4618  4596    1  0.0000000000      0.5439200000       3
     4617  4616  4618  4619    1  0.0000000000      0.5020800000       3
     4617  4616  4618  4620    1  0.0000000000      0.5020800000       3
     4596  4598  4600  4601    1  180.0000000000    1.0041600000       2
     4596  4598  4600  4609    1  180.0000000000    1.0041600000       2
     4599  4598  4600  4601    1  0.0000000000      0.0000000000       1
     4599  4598  4600  4609    1  0.0000000000      0.0000000000       1
     4614  4598  4600  4601    1  180.0000000000    1.0041600000       2
     4614  4598  4600  4609    1  180.0000000000    1.0041600000       2
     4596  4598  4614  4601    1  0.0000000000      0.6508444444       3
     4596  4598  4614  4615    1  0.0000000000      0.6508444444       3
     4596  4598  4614  4616    1  0.0000000000      0.6508444444       3
     4599  4598  4614  4601    1  0.0000000000      0.6508444444       3
     4599  4598  4614  4615    1  0.0000000000      0.6508444444       3
     4599  4598  4614  4616    1  0.0000000000      0.6508444444       3
     4600  4598  4614  4601    1  0.0000000000      0.6508444444       3
     4600  4598  4614  4615    1  0.0000000000      0.6508444444       3
     4600  4598  4614  4616    1  0.0000000000      0.6508444444       3
     4880  4879  4878  4883    1  0.0000000000      0.0000000000       2
     4881  4879  4878  4883    1  0.0000000000      0.0000000000       2
     4882  4879  4878  4883    1  0.0000000000      0.0000000000       2
     4887  4886  4885  4884    1  0.0000000000      0.0000000000       2
     4888  4886  4885  4884    1  0.0000000000      0.0000000000       2
     4889  4886  4885  4884    1  0.0000000000      0.0000000000       2
     4607  4608  4609  4600    1  180.0000000000    15.1670000000      2
     6440  4608  4607  6438    1  180.0000000000    15.1670000000      2
     4607  4608  6440  6438    1  180.0000000000    1.0041600000       2
     4609  4608  6440  6438    1  180.0000000000    1.0041600000       2
     4607  4608  6440  6441    1  0.0000000000      0.0000000000       1
     4609  4608  6440  6441    1  0.0000000000      0.0000000000       1
     4607  4608  6440  6442    1  180.0000000000    1.0041600000       2
     4609  4608  6440  6442    1  180.0000000000    1.0041600000       2
     4609  4608  4607  6438    1  180.0000000000    15.1670000000      2
     4600  4601  4602  4603    1  180.0000000000    15.1670000000      2
     4600  4601  4602  4607    1  180.0000000000    15.1670000000      2
     4614  4601  4602  4603    1  180.0000000000    15.1670000000      2
     4600  4601  4614  4598    1  180.0000000000    1.0041600000       2
     4600  4601  4614  4615    1  0.0000000000      0.0000000000       1
     4600  4601  4614  4616    1  180.0000000000    1.0041600000       2
     4602  4601  4614  4598    1  180.0000000000    1.0041600000       2
     4602  4601  4614  4615    1  0.0000000000      0.0000000000       1
     4602  4601  4614  4616    1  180.0000000000    1.0041600000       2
     4876  4877  4878  4879    1  180.0000000000    15.1670000000      2
     4876  4877  4878  4883    1  180.0000000000    15.1670000000      2
     4890  4877  4878  4879    1  180.0000000000    15.1670000000      2
     4876  4877  4890  4874    1  180.0000000000    1.0041600000       2
     4876  4877  4890  4891    1  0.0000000000      0.0000000000       1
     4876  4877  4890  4892    1  180.0000000000    1.0041600000       2
     4878  4877  4890  4874    1  180.0000000000    1.0041600000       2
     4878  4877  4890  4891    1  0.0000000000      0.0000000000       1
     4878  4877  4890  4892    1  180.0000000000    1.0041600000       2
     4883  4884  4885  4876    1  180.0000000000    15.1670000000      2
     1127  4884  4883  1125    1  180.0000000000    15.1670000000      2
     4883  4884  1127  1125    1  180.0000000000    1.0041600000       2
     4885  4884  1127  1125    1  180.0000000000    1.0041600000       2
     4883  4884  1127  1128    1  0.0000000000      0.0000000000       1
     4885  4884  1127  1128    1  0.0000000000      0.0000000000       1
     4883  4884  1127  1129    1  180.0000000000    1.0041600000       2
     4885  4884  1127  1129    1  180.0000000000    1.0041600000       2
     4885  4884  4883  1125    1  180.0000000000    15.1670000000      2
     6438  6436  6434  6432    1  0.0000000000      2.1756800000       3
     6438  6436  6434  6435    1  0.0000000000      0.5439200000       3
     6438  6436  6434  6447    1  0.0000000000      0.6508444444       3
     6434  6436  6438  6439    1  0.0000000000      0.5439200000       3
     6434  6436  6438  6440    1  0.0000000000      2.1756800000       3
     6437  6436  6438  6439    1  0.0000000000      0.5020800000       3
     6437  6436  6438  6440    1  0.0000000000      0.5439200000       3
     6444  6436  6438  6439    1  0.0000000000      0.5439200000       3
     6444  6436  6438  6440    1  0.0000000000      2.1756800000       3
     6434  6436  6444  6442    1  0.0000000000      0.6508444444       3
     6434  6436  6444  6445    1  0.0000000000      0.6508444444       3
     6434  6436  6444  6446    1  0.0000000000      0.6508444444       3
     6437  6436  6444  6442    1  0.0000000000      0.5439200000       3
     6437  6436  6444  6445    1  0.0000000000      0.5020800000       3
     6437  6436  6444  6446    1  0.0000000000      0.5020800000       3
     6438  6436  6444  6445    1  0.0000000000      0.6508444444       3
     6438  6436  6444  6446    1  0.0000000000      0.6508444444       3
     6434  6436  6438  4607    1  0.0000000000      0.6508444444       3
     6437  6436  6438  4607    1  0.0000000000      0.6508444444       3
     6444  6436  6438  4607    1  0.0000000000      0.6508444444       3
     4602  4607  4608  4609    1  180.0000000000    15.1670000000      2
     4602  4607  4608  6440    1  180.0000000000    15.1670000000      2
     4602  4607  6438  6436    1  180.0000000000    1.0041600000       2
     4608  4607  6438  6436    1  180.0000000000    1.0041600000       2
     4602  4607  6438  6439    1  0.0000000000      0.0000000000       1
     4608  4607  6438  6439    1  0.0000000000      0.0000000000       1
     4602  4607  6438  6440    1  180.0000000000    1.0041600000       2
     4608  4607  6438  6440    1  180.0000000000    1.0041600000       2
     971   1000  1001  1002    1  180.0000000000    15.1670000000      2
     971   1000  1001  1003    1  180.0000000000    15.1670000000      2
     999   1000  1001  1002    1  180.0000000000    15.1670000000      2
     999   1000  1001  1003    1  180.0000000000    15.1670000000      2
     740   739   738   743     1  0.0000000000      0.0000000000       2
     741   739   738   743     1  0.0000000000      0.0000000000       2
     742   739   738   743     1  0.0000000000      0.0000000000       2
     971   976   977   978     1  180.0000000000    15.1670000000      2
     971   976   977   999     1  180.0000000000    15.1670000000      2
     997   976   977   978     1  180.0000000000    15.1670000000      2
     997   976   977   999     1  180.0000000000    15.1670000000      2
     971   976   997   996     1  180.0000000000    15.1670000000      2
     971   976   997   998     1  180.0000000000    15.1670000000      2
     977   976   997   996     1  180.0000000000    15.1670000000      2
     977   976   997   998     1  180.0000000000    15.1670000000      2
     1129  1131  1123  1125    1  0.0000000000      0.6508444444       3
     1123  1131  1129  1127    1  0.0000000000      0.6508444444       3
     4872  4874  4876  4877    1  180.0000000000    1.0041600000       2
     4872  4874  4876  4885    1  180.0000000000    1.0041600000       2
     4875  4874  4876  4877    1  0.0000000000      0.0000000000       1
     4875  4874  4876  4885    1  0.0000000000      0.0000000000       1
     4890  4874  4876  4877    1  180.0000000000    1.0041600000       2
     4890  4874  4876  4885    1  180.0000000000    1.0041600000       2
     4872  4874  4890  4877    1  0.0000000000      0.6508444444       3
     4872  4874  4890  4891    1  0.0000000000      0.6508444444       3
     4872  4874  4890  4892    1  0.0000000000      0.6508444444       3
     4875  4874  4890  4877    1  0.0000000000      0.6508444444       3
     4875  4874  4890  4891    1  0.0000000000      0.6508444444       3
     4875  4874  4890  4892    1  0.0000000000      0.6508444444       3
     4876  4874  4890  4877    1  0.0000000000      0.6508444444       3
     4876  4874  4890  4891    1  0.0000000000      0.6508444444       3
     4876  4874  4890  4892    1  0.0000000000      0.6508444444       3
     1127  1129  1119  1118    1  0.0000000000      0.6508444444       3
     1127  1129  1119  1120    1  0.0000000000      0.5439200000       3
     1127  1129  1119  1121    1  0.0000000000      2.1756800000       3
     1119  1129  1127  1125    1  0.0000000000      2.1756800000       3
     1130  1129  1127  1125    1  0.0000000000      0.5439200000       3
     1131  1129  1127  1125    1  0.0000000000      2.1756800000       3
     1119  1129  1127  1128    1  0.0000000000      0.5439200000       3
     1130  1129  1127  1128    1  0.0000000000      0.5020800000       3
     1131  1129  1127  1128    1  0.0000000000      0.5439200000       3
     1119  1129  1131  1123    1  0.0000000000      0.6508444444       3
     1119  1129  1131  1132    1  0.0000000000      0.6508444444       3
     1119  1129  1131  1133    1  0.0000000000      0.6508444444       3
     1127  1129  1131  1132    1  0.0000000000      0.6508444444       3
     1127  1129  1131  1133    1  0.0000000000      0.6508444444       3
     1130  1129  1131  1123    1  0.0000000000      0.5439200000       3
     1130  1129  1131  1132    1  0.0000000000      0.5020800000       3
     1130  1129  1131  1133    1  0.0000000000      0.5020800000       3
     1119  1129  1127  4884    1  0.0000000000      0.6508444444       3
     1130  1129  1127  4884    1  0.0000000000      0.6508444444       3
     1131  1129  1127  4884    1  0.0000000000      0.6508444444       3
     4611  4610  4609  4608    1  0.0000000000      0.0000000000       2
     4612  4610  4609  4608    1  0.0000000000      0.0000000000       2
     4613  4610  4609  4608    1  0.0000000000      0.0000000000       2
     4874  4876  4877  4878    1  180.0000000000    15.1670000000      2
     4874  4876  4877  4890    1  180.0000000000    15.1670000000      2
     4885  4876  4877  4878    1  180.0000000000    15.1670000000      2
     4885  4876  4877  4890    1  180.0000000000    15.1670000000      2
     4874  4876  4885  4886    1  180.0000000000    15.1670000000      2
     4877  4876  4885  4884    1  180.0000000000    15.1670000000      2
     4877  4876  4885  4886    1  180.0000000000    15.1670000000      2
     968   967   971   972     1  0.0000000000      0.5439200000       3
     968   967   971   976     1  0.0000000000      0.6508444444       3
     968   967   971   1000    1  0.0000000000      0.6508444444       3
     969   967   971   972     1  0.0000000000      0.5439200000       3
     969   967   971   976     1  0.0000000000      0.6508444444       3
     969   967   971   1000    1  0.0000000000      0.6508444444       3
     970   967   971   972     1  0.0000000000      0.5439200000       3
     970   967   971   976     1  0.0000000000      0.6508444444       3
     970   967   971   1000    1  0.0000000000      0.6508444444       3
     4598  4614  4616  4592    1  0.0000000000      2.1756800000       3
     4598  4614  4616  4617    1  0.0000000000      0.5439200000       3
     4598  4614  4616  4618    1  0.0000000000      2.1756800000       3
     4601  4614  4616  4592    1  0.0000000000      0.6508444444       3
     4601  4614  4616  4617    1  0.0000000000      0.6508444444       3
     4601  4614  4616  4618    1  0.0000000000      0.6508444444       3
     4615  4614  4616  4592    1  0.0000000000      0.5439200000       3
     4615  4614  4616  4617    1  0.0000000000      0.5020800000       3
     4615  4614  4616  4618    1  0.0000000000      0.5439200000       3
     4886  4885  4884  4883    1  180.0000000000    15.1670000000      2
     4884  4885  4876  4874    1  180.0000000000    15.1670000000      2
     4876  4885  4886  4887    1  0.0000000000      0.0000000000       2
     4876  4885  4886  4888    1  0.0000000000      0.0000000000       2
     4876  4885  4886  4889    1  0.0000000000      0.0000000000       2
     4876  4885  4884  1127    1  180.0000000000    15.1670000000      2
     4886  4885  4884  1127    1  180.0000000000    15.1670000000      2
     6442  6440  6438  6439    1  0.0000000000      0.6508444444       3
     4608  6440  6438  6439    1  0.0000000000      0.6508444444       3
     4608  6440  6438  4607    1  0.0000000000      0.6508444444       3
     6442  6440  6438  4607    1  0.0000000000      0.6508444444       3
     4556  4555  4559  4560    1  0.0000000000      0.5439200000       3
     4556  4555  4559  4564    1  0.0000000000      0.6508444444       3
     4556  4555  4559  4588    1  0.0000000000      0.6508444444       3
     4557  4555  4559  4560    1  0.0000000000      0.5439200000       3
     4557  4555  4559  4564    1  0.0000000000      0.6508444444       3
     4557  4555  4559  4588    1  0.0000000000      0.6508444444       3
     4558  4555  4559  4560    1  0.0000000000      0.5439200000       3
     4558  4555  4559  4564    1  0.0000000000      0.6508444444       3
     4558  4555  4559  4588    1  0.0000000000      0.6508444444       3
     4598  4600  4601  4602    1  180.0000000000    15.1670000000      2
     4598  4600  4601  4614    1  180.0000000000    15.1670000000      2
     4609  4600  4601  4602    1  180.0000000000    15.1670000000      2
     4609  4600  4601  4614    1  180.0000000000    15.1670000000      2
     4598  4600  4609  4610    1  180.0000000000    15.1670000000      2
     4601  4600  4609  4608    1  180.0000000000    15.1670000000      2
     4601  4600  4609  4610    1  180.0000000000    15.1670000000      2
     6440  6442  6432  6431    1  0.0000000000      0.6508444444       3
     6440  6442  6432  6433    1  0.0000000000      0.5439200000       3
     6440  6442  6432  6434    1  0.0000000000      2.1756800000       3
     6432  6442  6440  6438    1  0.0000000000      2.1756800000       3
     6443  6442  6440  6438    1  0.0000000000      0.5439200000       3
     6444  6442  6440  6438    1  0.0000000000      2.1756800000       3
     6432  6442  6440  6441    1  0.0000000000      0.5439200000       3
     6443  6442  6440  6441    1  0.0000000000      0.5020800000       3
     6444  6442  6440  6441    1  0.0000000000      0.5439200000       3
     6432  6442  6444  6436    1  0.0000000000      0.6508444444       3
     6432  6442  6444  6445    1  0.0000000000      0.6508444444       3
     6432  6442  6444  6446    1  0.0000000000      0.6508444444       3
     6440  6442  6444  6445    1  0.0000000000      0.6508444444       3
     6440  6442  6444  6446    1  0.0000000000      0.6508444444       3
     6443  6442  6444  6436    1  0.0000000000      0.5439200000       3
     6443  6442  6444  6445    1  0.0000000000      0.5020800000       3
     6443  6442  6444  6446    1  0.0000000000      0.5020800000       3
     6432  6442  6440  4608    1  0.0000000000      0.6508444444       3
     6443  6442  6440  4608    1  0.0000000000      0.6508444444       3
     6444  6442  6440  4608    1  0.0000000000      0.6508444444       3
     5120  5136  5137  5116    1  180.0000000000    15.1670000000      2
     5120  5136  5137  5138    1  180.0000000000    15.1670000000      2
     5123  5136  5137  5116    1  180.0000000000    15.1670000000      2
     5123  5136  5137  5138    1  180.0000000000    15.1670000000      2
     1019  1020  1021  1012    1  180.0000000000    15.1670000000      2
     1021  1020  1019  5334    1  180.0000000000    15.1670000000      2
     1019  1020  5336  5334    1  180.0000000000    1.0041600000       2
     1021  1020  5336  5334    1  180.0000000000    1.0041600000       2
     1019  1020  5336  5337    1  0.0000000000      0.0000000000       1
     1021  1020  5336  5337    1  0.0000000000      0.0000000000       1
     1019  1020  5336  5338    1  180.0000000000    1.0041600000       2
     1021  1020  5336  5338    1  180.0000000000    1.0041600000       2
     2187  2192  2193  2194    1  180.0000000000    15.1670000000      2
     2187  2192  2193  4853    1  180.0000000000    15.1670000000      2
     2187  2192  4851  4849    1  180.0000000000    1.0041600000       2
     2193  2192  4851  4849    1  180.0000000000    1.0041600000       2
     2187  2192  4851  4852    1  0.0000000000      0.0000000000       1
     2193  2192  4851  4852    1  0.0000000000      0.0000000000       1
     2187  2192  4851  4853    1  180.0000000000    1.0041600000       2
     2193  2192  4851  4853    1  180.0000000000    1.0041600000       2
     2192  2193  2194  2185    1  180.0000000000    15.1670000000      2
     4853  2193  2192  4851    1  180.0000000000    15.1670000000      2
     2192  2193  4853  4851    1  180.0000000000    1.0041600000       2
     2194  2193  4853  4851    1  180.0000000000    1.0041600000       2
     2192  2193  4853  4854    1  0.0000000000      0.0000000000       1
     2194  2193  4853  4854    1  0.0000000000      0.0000000000       1
     2192  2193  4853  4855    1  180.0000000000    1.0041600000       2
     2194  2193  4853  4855    1  180.0000000000    1.0041600000       2
     2194  2193  2192  4851    1  180.0000000000    15.1670000000      2
     2193  2194  2185  2183    1  180.0000000000    15.1670000000      2
     2195  2194  2193  2192    1  180.0000000000    15.1670000000      2
     2185  2194  2195  2196    1  0.0000000000      0.0000000000       2
     2185  2194  2195  2197    1  0.0000000000      0.0000000000       2
     2185  2194  2195  2198    1  0.0000000000      0.0000000000       2
     2185  2194  2193  4853    1  180.0000000000    15.1670000000      2
     2195  2194  2193  4853    1  180.0000000000    15.1670000000      2
     4855  4853  4851  4852    1  0.0000000000      0.6508444444       3
     2193  4853  4851  4852    1  0.0000000000      0.6508444444       3
     2193  4853  4851  2192    1  0.0000000000      0.6508444444       3
     4855  4853  4851  2192    1  0.0000000000      0.6508444444       3
     4853  4855  4845  4844    1  0.0000000000      0.6508444444       3
     4853  4855  4845  4846    1  0.0000000000      0.5439200000       3
     4853  4855  4845  4847    1  0.0000000000      2.1756800000       3
     4845  4855  4853  4851    1  0.0000000000      2.1756800000       3
     4856  4855  4853  4851    1  0.0000000000      0.5439200000       3
     4857  4855  4853  4851    1  0.0000000000      2.1756800000       3
     4845  4855  4853  4854    1  0.0000000000      0.5439200000       3
     4856  4855  4853  4854    1  0.0000000000      0.5020800000       3
     4857  4855  4853  4854    1  0.0000000000      0.5439200000       3
     4845  4855  4857  4849    1  0.0000000000      0.6508444444       3
     4845  4855  4857  4858    1  0.0000000000      0.6508444444       3
     4845  4855  4857  4859    1  0.0000000000      0.6508444444       3
     4853  4855  4857  4858    1  0.0000000000      0.6508444444       3
     4853  4855  4857  4859    1  0.0000000000      0.6508444444       3
     4856  4855  4857  4849    1  0.0000000000      0.5439200000       3
     4856  4855  4857  4858    1  0.0000000000      0.5020800000       3
     4856  4855  4857  4859    1  0.0000000000      0.5020800000       3
     4845  4855  4853  2193    1  0.0000000000      0.6508444444       3
     4856  4855  4853  2193    1  0.0000000000      0.6508444444       3
     4857  4855  4853  2193    1  0.0000000000      0.6508444444       3
     2150  2151  2153  2154    1  180.0000000000    15.1670000000      2
     2150  2151  2153  2169    1  180.0000000000    15.1670000000      2
     2152  2151  2153  2154    1  180.0000000000    15.1670000000      2
     2152  2151  2153  2169    1  180.0000000000    15.1670000000      2
     4855  4857  4849  4851    1  0.0000000000      0.6508444444       3
     4849  4857  4855  4853    1  0.0000000000      0.6508444444       3
     2149  2150  2151  2152    1  180.0000000000    15.1670000000      2
     2149  2150  2151  2153    1  180.0000000000    15.1670000000      2
     2172  2150  2151  2152    1  180.0000000000    15.1670000000      2
     2172  2150  2151  2153    1  180.0000000000    15.1670000000      2
     2149  2150  2172  2173    1  180.0000000000    4.1840000000       2
     2149  2150  2172  2207    1  180.0000000000    4.1840000000       2
     2151  2150  2172  2173    1  180.0000000000    4.1840000000       2
     2151  2150  2172  2207    1  180.0000000000    4.1840000000       2
     2176  2206  2207  2172    1  180.0000000000    15.1670000000      2
     2176  2206  2207  2208    1  180.0000000000    15.1670000000      2
     2179  2206  2207  2172    1  180.0000000000    15.1670000000      2
     2179  2206  2207  2208    1  180.0000000000    15.1670000000      2
     2183  2185  2186  2187    1  180.0000000000    15.1670000000      2
     2183  2185  2186  2199    1  180.0000000000    15.1670000000      2
     2194  2185  2186  2187    1  180.0000000000    15.1670000000      2
     2194  2185  2186  2199    1  180.0000000000    15.1670000000      2
     2183  2185  2194  2195    1  180.0000000000    15.1670000000      2
     2186  2185  2194  2193    1  180.0000000000    15.1670000000      2
     2186  2185  2194  2195    1  180.0000000000    15.1670000000      2
     2185  2186  2187  2188    1  180.0000000000    15.1670000000      2
     2185  2186  2187  2192    1  180.0000000000    15.1670000000      2
     2199  2186  2187  2188    1  180.0000000000    15.1670000000      2
     2185  2186  2199  2183    1  180.0000000000    1.0041600000       2
     2185  2186  2199  2200    1  0.0000000000      0.0000000000       1
     2185  2186  2199  2201    1  180.0000000000    1.0041600000       2
     2187  2186  2199  2183    1  180.0000000000    1.0041600000       2
     2187  2186  2199  2200    1  0.0000000000      0.0000000000       1
     2187  2186  2199  2201    1  180.0000000000    1.0041600000       2
     2196  2195  2194  2193    1  0.0000000000      0.0000000000       2
     2197  2195  2194  2193    1  0.0000000000      0.0000000000       2
     2198  2195  2194  2193    1  0.0000000000      0.0000000000       2
     2192  2187  2186  2199    1  180.0000000000    15.1670000000      2
     2186  2187  2188  2189    1  0.0000000000      0.0000000000       2
     2186  2187  2188  2190    1  0.0000000000      0.0000000000       2
     2186  2187  2188  2191    1  0.0000000000      0.0000000000       2
     2186  2187  2192  2193    1  180.0000000000    15.1670000000      2
     2188  2187  2192  2193    1  180.0000000000    15.1670000000      2
     2186  2187  2192  4851    1  180.0000000000    15.1670000000      2
     2188  2187  2192  4851    1  180.0000000000    15.1670000000      2
     2150  2172  2173  2144    1  180.0000000000    15.1670000000      2
     2150  2172  2173  2174    1  180.0000000000    15.1670000000      2
     2207  2172  2173  2144    1  180.0000000000    15.1670000000      2
     2207  2172  2173  2174    1  180.0000000000    15.1670000000      2
     2150  2172  2207  2206    1  180.0000000000    15.1670000000      2
     2150  2172  2207  2208    1  180.0000000000    15.1670000000      2
     2173  2172  2207  2206    1  180.0000000000    15.1670000000      2
     2173  2172  2207  2208    1  180.0000000000    15.1670000000      2
     6733  6735  6737  6738    1  0.0000000000      0.5439200000       3
     6733  6735  6737  6739    1  0.0000000000      0.6508444444       3
     6733  6735  6737  6753    1  0.0000000000      2.1756800000       3
     6736  6735  6737  6738    1  0.0000000000      0.5020800000       3
     6736  6735  6737  6739    1  0.0000000000      0.6508444444       3
     6736  6735  6737  6753    1  0.0000000000      0.5439200000       3
     6757  6735  6737  6738    1  0.0000000000      0.5439200000       3
     6757  6735  6737  6739    1  0.0000000000      0.6508444444       3
     6757  6735  6737  6753    1  0.0000000000      2.1756800000       3
     6733  6735  6757  6755    1  0.0000000000      0.6508444444       3
     6733  6735  6757  6758    1  0.0000000000      0.6508444444       3
     6733  6735  6757  6759    1  0.0000000000      0.6508444444       3
     6736  6735  6757  6755    1  0.0000000000      0.5439200000       3
     6736  6735  6757  6758    1  0.0000000000      0.5020800000       3
     6736  6735  6757  6759    1  0.0000000000      0.5020800000       3
     6737  6735  6757  6755    1  0.0000000000      0.6508444444       3
     6737  6735  6757  6758    1  0.0000000000      0.6508444444       3
     6737  6735  6757  6759    1  0.0000000000      0.6508444444       3
     2177  2179  2181  2182    1  0.0000000000      0.5439200000       3
     2177  2179  2181  2183    1  0.0000000000      2.1756800000       3
     2177  2179  2181  2203    1  0.0000000000      2.1756800000       3
     2180  2179  2181  2182    1  0.0000000000      0.5020800000       3
     2180  2179  2181  2183    1  0.0000000000      0.5439200000       3
     2180  2179  2181  2203    1  0.0000000000      0.5439200000       3
     2206  2179  2181  2182    1  0.0000000000      0.6508444444       3
     2206  2179  2181  2183    1  0.0000000000      0.6508444444       3
     2206  2179  2181  2203    1  0.0000000000      0.6508444444       3
     2177  2179  2206  2176    1  180.0000000000    1.0041600000       2
     2177  2179  2206  2207    1  180.0000000000    1.0041600000       2
     2180  2179  2206  2176    1  0.0000000000      0.0000000000       1
     2180  2179  2206  2207    1  0.0000000000      0.0000000000       1
     2181  2179  2206  2176    1  180.0000000000    1.0041600000       2
     2181  2179  2206  2207    1  180.0000000000    1.0041600000       2
     2181  2183  2185  2186    1  180.0000000000    1.0041600000       2
     2181  2183  2185  2194    1  180.0000000000    1.0041600000       2
     2184  2183  2185  2186    1  0.0000000000      0.0000000000       1
     2184  2183  2185  2194    1  0.0000000000      0.0000000000       1
     2199  2183  2185  2186    1  180.0000000000    1.0041600000       2
     2199  2183  2185  2194    1  180.0000000000    1.0041600000       2
     2181  2183  2199  2186    1  0.0000000000      0.6508444444       3
     2181  2183  2199  2200    1  0.0000000000      0.6508444444       3
     2181  2183  2199  2201    1  0.0000000000      0.6508444444       3
     2184  2183  2199  2186    1  0.0000000000      0.6508444444       3
     2184  2183  2199  2200    1  0.0000000000      0.6508444444       3
     2184  2183  2199  2201    1  0.0000000000      0.6508444444       3
     2185  2183  2199  2186    1  0.0000000000      0.6508444444       3
     2185  2183  2199  2200    1  0.0000000000      0.6508444444       3
     2185  2183  2199  2201    1  0.0000000000      0.6508444444       3
     2189  2188  2187  2192    1  0.0000000000      0.0000000000       2
     2190  2188  2187  2192    1  0.0000000000      0.0000000000       2
     2191  2188  2187  2192    1  0.0000000000      0.0000000000       2
     2177  2201  2203  2181    1  0.0000000000      0.6508444444       3
     2177  2201  2203  2204    1  0.0000000000      0.6508444444       3
     2177  2201  2203  2205    1  0.0000000000      0.6508444444       3
     2199  2201  2203  2181    1  0.0000000000      0.6508444444       3
     2199  2201  2203  2204    1  0.0000000000      0.6508444444       3
     2199  2201  2203  2205    1  0.0000000000      0.6508444444       3
     2202  2201  2203  2181    1  0.0000000000      0.5439200000       3
     2202  2201  2203  2204    1  0.0000000000      0.5020800000       3
     2202  2201  2203  2205    1  0.0000000000      0.5020800000       3
     2183  2199  2201  2177    1  0.0000000000      2.1756800000       3
     2183  2199  2201  2202    1  0.0000000000      0.5439200000       3
     2183  2199  2201  2203    1  0.0000000000      2.1756800000       3
     2186  2199  2201  2177    1  0.0000000000      0.6508444444       3
     2186  2199  2201  2202    1  0.0000000000      0.6508444444       3
     2186  2199  2201  2203    1  0.0000000000      0.6508444444       3
     2200  2199  2201  2177    1  0.0000000000      0.5439200000       3
     2200  2199  2201  2202    1  0.0000000000      0.5020800000       3
     2200  2199  2201  2203    1  0.0000000000      0.5439200000       3
     2176  2177  2179  2180    1  0.0000000000      0.6508444444       3
     2176  2177  2179  2181    1  0.0000000000      0.6508444444       3
     2176  2177  2179  2206    1  0.0000000000      0.6508444444       3
     2178  2177  2179  2180    1  0.0000000000      0.6508444444       3
     2178  2177  2179  2181    1  0.0000000000      0.6508444444       3
     2178  2177  2179  2206    1  0.0000000000      0.6508444444       3
     2201  2177  2179  2180    1  0.0000000000      0.6508444444       3
     2201  2177  2179  2181    1  0.0000000000      0.6508444444       3
     2201  2177  2179  2206    1  0.0000000000      0.6508444444       3
     2176  2177  2201  2199    1  0.0000000000      0.6508444444       3
     2176  2177  2201  2202    1  0.0000000000      0.6508444444       3
     2176  2177  2201  2203    1  0.0000000000      0.6508444444       3
     2178  2177  2201  2199    1  0.0000000000      0.5439200000       3
     2178  2177  2201  2202    1  0.0000000000      0.5020800000       3
     2178  2177  2201  2203    1  0.0000000000      0.5439200000       3
     2179  2177  2201  2199    1  0.0000000000      2.1756800000       3
     2179  2177  2201  2202    1  0.0000000000      0.5439200000       3
     2179  2177  2201  2203    1  0.0000000000      2.1756800000       3
     2151  2153  2154  2155    1  0.0000000000      0.0000000000       1
     2151  2153  2154  2156    1  180.0000000000    1.0041600000       2
     2151  2153  2154  2164    1  180.0000000000    1.0041600000       2
     2169  2153  2154  2155    1  0.0000000000      0.0000000000       1
     2169  2153  2154  2156    1  180.0000000000    1.0041600000       2
     2169  2153  2154  2164    1  180.0000000000    1.0041600000       2
     2151  2153  2169  2156    1  180.0000000000    15.1670000000      2
     2151  2153  2169  2170    1  180.0000000000    15.1670000000      2
     2154  2153  2169  2156    1  180.0000000000    15.1670000000      2
     2154  2153  2169  2170    1  180.0000000000    15.1670000000      2
     2174  2176  2177  2178    1  0.0000000000      0.0000000000       1
     2174  2176  2177  2179    1  180.0000000000    1.0041600000       2
     2174  2176  2177  2201    1  180.0000000000    1.0041600000       2
     2206  2176  2177  2178    1  0.0000000000      0.0000000000       1
     2206  2176  2177  2179    1  180.0000000000    1.0041600000       2
     2206  2176  2177  2201    1  180.0000000000    1.0041600000       2
     2174  2176  2206  2179    1  180.0000000000    15.1670000000      2
     2174  2176  2206  2207    1  180.0000000000    15.1670000000      2
     2177  2176  2206  2179    1  180.0000000000    15.1670000000      2
     2177  2176  2206  2207    1  180.0000000000    15.1670000000      2
     4849  4851  4853  4854    1  0.0000000000      0.6508444444       3
     4849  4851  4853  4855    1  0.0000000000      0.6508444444       3
     4852  4851  4853  4854    1  0.0000000000      0.6508444444       3
     4849  4851  4853  2193    1  0.0000000000      0.6508444444       3
     2192  4851  4853  4854    1  0.0000000000      0.6508444444       3
     6731  6733  6735  6736    1  0.0000000000      0.5439200000       3
     6731  6733  6735  6737    1  0.0000000000      2.1756800000       3
     6731  6733  6735  6757    1  0.0000000000      2.1756800000       3
     6734  6733  6735  6736    1  0.0000000000      0.5020800000       3
     6734  6733  6735  6737    1  0.0000000000      0.5439200000       3
     6734  6733  6735  6757    1  0.0000000000      0.5439200000       3
     6760  6733  6735  6736    1  0.0000000000      0.6508444444       3
     6760  6733  6735  6737    1  0.0000000000      0.6508444444       3
     6760  6733  6735  6757    1  0.0000000000      0.6508444444       3
     6731  6733  6760  6730    1  180.0000000000    1.0041600000       2
     6731  6733  6760  6761    1  180.0000000000    1.0041600000       2
     6734  6733  6760  6730    1  0.0000000000      0.0000000000       1
     6734  6733  6760  6761    1  0.0000000000      0.0000000000       1
     6735  6733  6760  6730    1  180.0000000000    1.0041600000       2
     6735  6733  6760  6761    1  180.0000000000    1.0041600000       2
     2179  2181  2183  2184    1  0.0000000000      0.5439200000       3
     2179  2181  2183  2185    1  0.0000000000      0.6508444444       3
     2179  2181  2183  2199    1  0.0000000000      2.1756800000       3
     2182  2181  2183  2184    1  0.0000000000      0.5020800000       3
     2182  2181  2183  2185    1  0.0000000000      0.6508444444       3
     2182  2181  2183  2199    1  0.0000000000      0.5439200000       3
     2203  2181  2183  2184    1  0.0000000000      0.5439200000       3
     2203  2181  2183  2185    1  0.0000000000      0.6508444444       3
     2203  2181  2183  2199    1  0.0000000000      2.1756800000       3
     2179  2181  2203  2201    1  0.0000000000      0.6508444444       3
     2179  2181  2203  2204    1  0.0000000000      0.6508444444       3
     2179  2181  2203  2205    1  0.0000000000      0.6508444444       3
     2182  2181  2203  2201    1  0.0000000000      0.5439200000       3
     2182  2181  2203  2204    1  0.0000000000      0.5020800000       3
     2182  2181  2203  2205    1  0.0000000000      0.5020800000       3
     2183  2181  2203  2201    1  0.0000000000      0.6508444444       3
     2183  2181  2203  2204    1  0.0000000000      0.6508444444       3
     2183  2181  2203  2205    1  0.0000000000      0.6508444444       3
     4851  4849  4847  4845    1  0.0000000000      2.1756800000       3
     4851  4849  4847  4848    1  0.0000000000      0.5439200000       3
     4851  4849  4847  4860    1  0.0000000000      0.6508444444       3
     4847  4849  4851  4852    1  0.0000000000      0.5439200000       3
     4847  4849  4851  4853    1  0.0000000000      2.1756800000       3
     4850  4849  4851  4852    1  0.0000000000      0.5020800000       3
     4850  4849  4851  4853    1  0.0000000000      0.5439200000       3
     4857  4849  4851  4852    1  0.0000000000      0.5439200000       3
     4857  4849  4851  4853    1  0.0000000000      2.1756800000       3
     4847  4849  4857  4855    1  0.0000000000      0.6508444444       3
     4847  4849  4857  4858    1  0.0000000000      0.6508444444       3
     4847  4849  4857  4859    1  0.0000000000      0.6508444444       3
     4850  4849  4857  4855    1  0.0000000000      0.5439200000       3
     4850  4849  4857  4858    1  0.0000000000      0.5020800000       3
     4850  4849  4857  4859    1  0.0000000000      0.5020800000       3
     4851  4849  4857  4858    1  0.0000000000      0.6508444444       3
     4851  4849  4857  4859    1  0.0000000000      0.6508444444       3
     4847  4849  4851  2192    1  0.0000000000      0.6508444444       3
     4850  4849  4851  2192    1  0.0000000000      0.6508444444       3
     4857  4849  4851  2192    1  0.0000000000      0.6508444444       3
     4844  4845  4847  4848    1  0.0000000000      0.6508444444       3
     4844  4845  4847  4849    1  0.0000000000      0.6508444444       3
     4844  4845  4847  4860    1  0.0000000000      0.6508444444       3
     4846  4845  4847  4848    1  0.0000000000      0.6508444444       3
     4846  4845  4847  4849    1  0.0000000000      0.6508444444       3
     4846  4845  4847  4860    1  0.0000000000      0.6508444444       3
     4855  4845  4847  4848    1  0.0000000000      0.6508444444       3
     4855  4845  4847  4849    1  0.0000000000      0.6508444444       3
     4855  4845  4847  4860    1  0.0000000000      0.6508444444       3
     4844  4845  4855  4856    1  0.0000000000      0.6508444444       3
     4844  4845  4855  4857    1  0.0000000000      0.6508444444       3
     4846  4845  4855  4856    1  0.0000000000      0.5020800000       3
     4846  4845  4855  4857    1  0.0000000000      0.5439200000       3
     4847  4845  4855  4856    1  0.0000000000      0.5439200000       3
     4847  4845  4855  4857    1  0.0000000000      2.1756800000       3
     2144  2149  2150  2151    1  180.0000000000    15.1670000000      2
     2144  2149  2150  2172    1  180.0000000000    15.1670000000      2
     2170  2149  2150  2151    1  180.0000000000    15.1670000000      2
     2170  2149  2150  2172    1  180.0000000000    15.1670000000      2
     2144  2149  2170  2169    1  180.0000000000    15.1670000000      2
     2144  2149  2170  2171    1  180.0000000000    15.1670000000      2
     2150  2149  2170  2169    1  180.0000000000    15.1670000000      2
     2150  2149  2170  2171    1  180.0000000000    15.1670000000      2
     2173  2174  2176  2177    1  180.0000000000    15.1670000000      2
     2173  2174  2176  2206    1  180.0000000000    15.1670000000      2
     2175  2174  2176  2177    1  180.0000000000    15.1670000000      2
     2175  2174  2176  2206    1  180.0000000000    15.1670000000      2
     2153  2169  2170  2149    1  180.0000000000    15.1670000000      2
     2153  2169  2170  2171    1  180.0000000000    15.1670000000      2
     2156  2169  2170  2149    1  180.0000000000    15.1670000000      2
     2156  2169  2170  2171    1  180.0000000000    15.1670000000      2
     2153  2154  2156  2157    1  0.0000000000      0.6508444444       3
     2153  2154  2156  2158    1  0.0000000000      0.6508444444       3
     2153  2154  2156  2169    1  0.0000000000      0.6508444444       3
     2155  2154  2156  2157    1  0.0000000000      0.6508444444       3
     2155  2154  2156  2158    1  0.0000000000      0.6508444444       3
     2155  2154  2156  2169    1  0.0000000000      0.6508444444       3
     2164  2154  2156  2157    1  0.0000000000      0.6508444444       3
     2164  2154  2156  2158    1  0.0000000000      0.6508444444       3
     2164  2154  2156  2169    1  0.0000000000      0.6508444444       3
     2153  2154  2164  2165    1  0.0000000000      0.6508444444       3
     2153  2154  2164  2166    1  0.0000000000      0.6508444444       3
     2155  2154  2164  2165    1  0.0000000000      0.5020800000       3
     2155  2154  2164  2166    1  0.0000000000      0.5439200000       3
     2156  2154  2164  2165    1  0.0000000000      0.5439200000       3
     2156  2154  2164  2166    1  0.0000000000      2.1756800000       3
     4841  4842  4844  4845    1  180.0000000000    15.1670000000      2
     4841  4842  4844  4860    1  180.0000000000    15.1670000000      2
     4843  4842  4844  4845    1  180.0000000000    15.1670000000      2
     4843  4842  4844  4860    1  180.0000000000    15.1670000000      2
     6783  6781  6779  6777    1  0.0000000000      2.1756800000       3
     6783  6781  6779  6780    1  0.0000000000      0.5439200000       3
     6783  6781  6779  6792    1  0.0000000000      0.6508444444       3
     6779  6781  6783  6784    1  0.0000000000      0.5439200000       3
     6779  6781  6783  6785    1  0.0000000000      2.1756800000       3
     6782  6781  6783  6784    1  0.0000000000      0.5020800000       3
     6782  6781  6783  6785    1  0.0000000000      0.5439200000       3
     6789  6781  6783  6784    1  0.0000000000      0.5439200000       3
     6789  6781  6783  6785    1  0.0000000000      2.1756800000       3
     6779  6781  6789  6787    1  0.0000000000      0.6508444444       3
     6779  6781  6789  6790    1  0.0000000000      0.6508444444       3
     6779  6781  6789  6791    1  0.0000000000      0.6508444444       3
     6782  6781  6789  6787    1  0.0000000000      0.5439200000       3
     6782  6781  6789  6790    1  0.0000000000      0.5020800000       3
     6782  6781  6789  6791    1  0.0000000000      0.5020800000       3
     6783  6781  6789  6790    1  0.0000000000      0.6508444444       3
     6783  6781  6789  6791    1  0.0000000000      0.6508444444       3
     6779  6781  6783  4815    1  0.0000000000      0.6508444444       3
     6782  6781  6783  4815    1  0.0000000000      0.6508444444       3
     6789  6781  6783  4815    1  0.0000000000      0.6508444444       3
     2144  2173  2174  2175    1  180.0000000000    15.1670000000      2
     2144  2173  2174  2176    1  180.0000000000    15.1670000000      2
     2172  2173  2174  2175    1  180.0000000000    15.1670000000      2
     2172  2173  2174  2176    1  180.0000000000    15.1670000000      2
     21    19    17    15      1  0.0000000000      2.1756800000       3
     21    19    17    18      1  0.0000000000      0.5439200000       3
     21    19    17    30      1  0.0000000000      0.6508444444       3
     17    19    21    22      1  0.0000000000      0.5439200000       3
     17    19    21    23      1  0.0000000000      2.1756800000       3
     20    19    21    22      1  0.0000000000      0.5020800000       3
     20    19    21    23      1  0.0000000000      0.5439200000       3
     27    19    21    22      1  0.0000000000      0.5439200000       3
     27    19    21    23      1  0.0000000000      2.1756800000       3
     17    19    27    25      1  0.0000000000      0.6508444444       3
     17    19    27    28      1  0.0000000000      0.6508444444       3
     17    19    27    29      1  0.0000000000      0.6508444444       3
     20    19    27    25      1  0.0000000000      0.5439200000       3
     20    19    27    28      1  0.0000000000      0.5020800000       3
     20    19    27    29      1  0.0000000000      0.5020800000       3
     21    19    27    28      1  0.0000000000      0.6508444444       3
     21    19    27    29      1  0.0000000000      0.6508444444       3
     17    19    21    6816    1  0.0000000000      0.6508444444       3
     20    19    21    6816    1  0.0000000000      0.6508444444       3
     27    19    21    6816    1  0.0000000000      0.6508444444       3
     4842  4844  4845  4846    1  0.0000000000      0.0000000000       1
     4842  4844  4845  4847    1  180.0000000000    1.0041600000       2
     4842  4844  4845  4855    1  180.0000000000    1.0041600000       2
     4860  4844  4845  4846    1  0.0000000000      0.0000000000       1
     4860  4844  4845  4847    1  180.0000000000    1.0041600000       2
     4860  4844  4845  4855    1  180.0000000000    1.0041600000       2
     4842  4844  4860  4847    1  180.0000000000    15.1670000000      2
     4842  4844  4860  4861    1  180.0000000000    15.1670000000      2
     4845  4844  4860  4847    1  180.0000000000    15.1670000000      2
     4845  4844  4860  4861    1  180.0000000000    15.1670000000      2
     4840  4841  4842  4843    1  180.0000000000    15.1670000000      2
     4840  4841  4842  4844    1  180.0000000000    15.1670000000      2
     4863  4841  4842  4843    1  180.0000000000    15.1670000000      2
     4863  4841  4842  4844    1  180.0000000000    15.1670000000      2
     4840  4841  4863  4864    1  180.0000000000    4.1840000000       2
     4840  4841  4863  4898    1  180.0000000000    4.1840000000       2
     4842  4841  4863  4864    1  180.0000000000    4.1840000000       2
     4842  4841  4863  4898    1  180.0000000000    4.1840000000       2
     3429  3434  3435  3436    1  180.0000000000    15.1670000000      2
     3611  3434  3435  3609    1  180.0000000000    15.1670000000      2
     3435  3434  3611  3609    1  180.0000000000    1.0041600000       2
     3429  3434  3611  3609    1  180.0000000000    1.0041600000       2
     3435  3434  3611  3612    1  0.0000000000      0.0000000000       1
     3429  3434  3611  3612    1  0.0000000000      0.0000000000       1
     3435  3434  3611  3613    1  180.0000000000    1.0041600000       2
     3429  3434  3611  3613    1  180.0000000000    1.0041600000       2
     3429  3434  3435  3609    1  180.0000000000    15.1670000000      2
     3603  3605  3607  3608    1  0.0000000000      0.5439200000       3
     3603  3605  3607  3615    1  0.0000000000      2.1756800000       3
     3606  3605  3607  3608    1  0.0000000000      0.5020800000       3
     3606  3605  3607  3615    1  0.0000000000      0.5439200000       3
     3618  3605  3607  3608    1  0.0000000000      0.6508444444       3
     3618  3605  3607  3615    1  0.0000000000      0.6508444444       3
     3603  3605  3618  3602    1  180.0000000000    1.0041600000       2
     3603  3605  3618  3619    1  180.0000000000    1.0041600000       2
     3606  3605  3618  3602    1  0.0000000000      0.0000000000       1
     3606  3605  3618  3619    1  0.0000000000      0.0000000000       1
     3607  3605  3618  3602    1  180.0000000000    1.0041600000       2
     3607  3605  3618  3619    1  180.0000000000    1.0041600000       2
     1493  1495  1496  1497    1  180.0000000000    15.1670000000      2
     1493  1495  1496  1509    1  180.0000000000    15.1670000000      2
     1504  1495  1496  1497    1  180.0000000000    15.1670000000      2
     1504  1495  1496  1509    1  180.0000000000    15.1670000000      2
     1493  1495  1504  1505    1  180.0000000000    15.1670000000      2
     1496  1495  1504  1503    1  180.0000000000    15.1670000000      2
     1496  1495  1504  1505    1  180.0000000000    15.1670000000      2
     4809  4814  4815  4816    1  180.0000000000    15.1670000000      2
     6785  4814  4815  6783    1  180.0000000000    15.1670000000      2
     4809  4814  6785  6783    1  180.0000000000    1.0041600000       2
     4815  4814  6785  6783    1  180.0000000000    1.0041600000       2
     4809  4814  6785  6786    1  0.0000000000      0.0000000000       1
     4815  4814  6785  6786    1  0.0000000000      0.0000000000       1
     4809  4814  6785  6787    1  180.0000000000    1.0041600000       2
     4815  4814  6785  6787    1  180.0000000000    1.0041600000       2
     4809  4814  4815  6783    1  180.0000000000    15.1670000000      2
     6772  6773  6774  6775    1  180.0000000000    15.1670000000      2
     6772  6773  6774  6776    1  180.0000000000    15.1670000000      2
     6795  6773  6774  6775    1  180.0000000000    15.1670000000      2
     6795  6773  6774  6776    1  180.0000000000    15.1670000000      2
     6772  6773  6795  6796    1  180.0000000000    4.1840000000       2
     6772  6773  6795  6830    1  180.0000000000    4.1840000000       2
     6774  6773  6795  6796    1  180.0000000000    4.1840000000       2
     6774  6773  6795  6830    1  180.0000000000    4.1840000000       2
     1493  1509  1511  1487    1  0.0000000000      2.1756800000       3
     1493  1509  1511  1512    1  0.0000000000      0.5439200000       3
     1493  1509  1511  1513    1  0.0000000000      2.1756800000       3
     1496  1509  1511  1487    1  0.0000000000      0.6508444444       3
     1496  1509  1511  1512    1  0.0000000000      0.6508444444       3
     1496  1509  1511  1513    1  0.0000000000      0.6508444444       3
     1510  1509  1511  1487    1  0.0000000000      0.5439200000       3
     1510  1509  1511  1512    1  0.0000000000      0.5020800000       3
     1510  1509  1511  1513    1  0.0000000000      0.5439200000       3
     3602  3603  3605  3606    1  0.0000000000      0.6508444444       3
     3602  3603  3605  3607    1  0.0000000000      0.6508444444       3
     3602  3603  3605  3618    1  0.0000000000      0.6508444444       3
     3604  3603  3605  3606    1  0.0000000000      0.6508444444       3
     3604  3603  3605  3607    1  0.0000000000      0.6508444444       3
     3604  3603  3605  3618    1  0.0000000000      0.6508444444       3
     3613  3603  3605  3606    1  0.0000000000      0.6508444444       3
     3613  3603  3605  3607    1  0.0000000000      0.6508444444       3
     3613  3603  3605  3618    1  0.0000000000      0.6508444444       3
     3602  3603  3613  3614    1  0.0000000000      0.6508444444       3
     3602  3603  3613  3615    1  0.0000000000      0.6508444444       3
     3604  3603  3613  3614    1  0.0000000000      0.5020800000       3
     3604  3603  3613  3615    1  0.0000000000      0.5439200000       3
     3605  3603  3613  3614    1  0.0000000000      0.5439200000       3
     3605  3603  3613  3615    1  0.0000000000      2.1756800000       3
     3602  3618  3619  3598    1  180.0000000000    15.1670000000      2
     3602  3618  3619  3620    1  180.0000000000    15.1670000000      2
     3605  3618  3619  3598    1  180.0000000000    15.1670000000      2
     3605  3618  3619  3620    1  180.0000000000    15.1670000000      2
     6773  6774  6776  6777    1  180.0000000000    15.1670000000      2
     6773  6774  6776  6792    1  180.0000000000    15.1670000000      2
     6775  6774  6776  6777    1  180.0000000000    15.1670000000      2
     6775  6774  6776  6792    1  180.0000000000    15.1670000000      2
     3609  3607  3605  3603    1  0.0000000000      2.1756800000       3
     3609  3607  3605  3606    1  0.0000000000      0.5439200000       3
     3609  3607  3605  3618    1  0.0000000000      0.6508444444       3
     3605  3607  3609  3610    1  0.0000000000      0.5439200000       3
     3605  3607  3609  3611    1  0.0000000000      2.1756800000       3
     3608  3607  3609  3610    1  0.0000000000      0.5020800000       3
     3608  3607  3609  3611    1  0.0000000000      0.5439200000       3
     3615  3607  3609  3610    1  0.0000000000      0.5439200000       3
     3615  3607  3609  3611    1  0.0000000000      2.1756800000       3
     3605  3607  3615  3613    1  0.0000000000      0.6508444444       3
     3605  3607  3615  3616    1  0.0000000000      0.6508444444       3
     3605  3607  3615  3617    1  0.0000000000      0.6508444444       3
     3608  3607  3615  3613    1  0.0000000000      0.5439200000       3
     3608  3607  3615  3616    1  0.0000000000      0.5020800000       3
     3608  3607  3615  3617    1  0.0000000000      0.5020800000       3
     3609  3607  3615  3616    1  0.0000000000      0.6508444444       3
     3609  3607  3615  3617    1  0.0000000000      0.6508444444       3
     3605  3607  3609  3435    1  0.0000000000      0.6508444444       3
     3608  3607  3609  3435    1  0.0000000000      0.6508444444       3
     3615  3607  3609  3435    1  0.0000000000      0.6508444444       3
     1495  1496  1497  1498    1  180.0000000000    15.1670000000      2
     1495  1496  1497  1502    1  180.0000000000    15.1670000000      2
     1509  1496  1497  1498    1  180.0000000000    15.1670000000      2
     1495  1496  1509  1493    1  180.0000000000    1.0041600000       2
     1495  1496  1509  1510    1  0.0000000000      0.0000000000       1
     1495  1496  1509  1511    1  180.0000000000    1.0041600000       2
     1497  1496  1509  1493    1  180.0000000000    1.0041600000       2
     1497  1496  1509  1510    1  0.0000000000      0.0000000000       1
     1497  1496  1509  1511    1  180.0000000000    1.0041600000       2
     4805  4807  4808  4809    1  180.0000000000    15.1670000000      2
     4805  4807  4808  4821    1  180.0000000000    15.1670000000      2
     4816  4807  4808  4809    1  180.0000000000    15.1670000000      2
     4816  4807  4808  4821    1  180.0000000000    15.1670000000      2
     4805  4807  4816  4817    1  180.0000000000    15.1670000000      2
     4808  4807  4816  4815    1  180.0000000000    15.1670000000      2
     4808  4807  4816  4817    1  180.0000000000    15.1670000000      2
     3599  3600  3602  3603    1  180.0000000000    15.1670000000      2
     3599  3600  3602  3618    1  180.0000000000    15.1670000000      2
     3601  3600  3602  3603    1  180.0000000000    15.1670000000      2
     3601  3600  3602  3618    1  180.0000000000    15.1670000000      2
     3600  3602  3603  3604    1  0.0000000000      0.0000000000       1
     3600  3602  3603  3605    1  180.0000000000    1.0041600000       2
     3600  3602  3603  3613    1  180.0000000000    1.0041600000       2
     3618  3602  3603  3604    1  0.0000000000      0.0000000000       1
     3618  3602  3603  3605    1  180.0000000000    1.0041600000       2
     3618  3602  3603  3613    1  180.0000000000    1.0041600000       2
     3600  3602  3618  3605    1  180.0000000000    15.1670000000      2
     3600  3602  3618  3619    1  180.0000000000    15.1670000000      2
     3603  3602  3618  3605    1  180.0000000000    15.1670000000      2
     3603  3602  3618  3619    1  180.0000000000    15.1670000000      2
     6781  6783  6785  6786    1  0.0000000000      0.6508444444       3
     6781  6783  6785  6787    1  0.0000000000      0.6508444444       3
     6784  6783  6785  6786    1  0.0000000000      0.6508444444       3
     6781  6783  6785  4814    1  0.0000000000      0.6508444444       3
     4815  6783  6785  6786    1  0.0000000000      0.6508444444       3
     4795  4796  4798  4799    1  180.0000000000    15.1670000000      2
     4795  4796  4798  4828    1  180.0000000000    15.1670000000      2
     4797  4796  4798  4799    1  180.0000000000    15.1670000000      2
     4797  4796  4798  4828    1  180.0000000000    15.1670000000      2
     6774  6776  6777  6778    1  0.0000000000      0.0000000000       1
     6774  6776  6777  6779    1  180.0000000000    1.0041600000       2
     6774  6776  6777  6787    1  180.0000000000    1.0041600000       2
     6792  6776  6777  6778    1  0.0000000000      0.0000000000       1
     6792  6776  6777  6779    1  180.0000000000    1.0041600000       2
     6792  6776  6777  6787    1  180.0000000000    1.0041600000       2
     6774  6776  6792  6779    1  180.0000000000    15.1670000000      2
     6774  6776  6792  6793    1  180.0000000000    15.1670000000      2
     6777  6776  6792  6779    1  180.0000000000    15.1670000000      2
     6777  6776  6792  6793    1  180.0000000000    15.1670000000      2
     6787  6789  6781  6783    1  0.0000000000      0.6508444444       3
     6781  6789  6787  6785    1  0.0000000000      0.6508444444       3
     1489  1491  1493  1494    1  0.0000000000      0.5439200000       3
     1489  1491  1493  1495    1  0.0000000000      0.6508444444       3
     1489  1491  1493  1509    1  0.0000000000      2.1756800000       3
     1492  1491  1493  1494    1  0.0000000000      0.5020800000       3
     1492  1491  1493  1495    1  0.0000000000      0.6508444444       3
     1492  1491  1493  1509    1  0.0000000000      0.5439200000       3
     1513  1491  1493  1494    1  0.0000000000      0.5439200000       3
     1513  1491  1493  1495    1  0.0000000000      0.6508444444       3
     1513  1491  1493  1509    1  0.0000000000      2.1756800000       3
     1489  1491  1513  1511    1  0.0000000000      0.6508444444       3
     1489  1491  1513  1514    1  0.0000000000      0.6508444444       3
     1489  1491  1513  1515    1  0.0000000000      0.6508444444       3
     1492  1491  1513  1511    1  0.0000000000      0.5439200000       3
     1492  1491  1513  1514    1  0.0000000000      0.5020800000       3
     1492  1491  1513  1515    1  0.0000000000      0.5020800000       3
     1493  1491  1513  1511    1  0.0000000000      0.6508444444       3
     1493  1491  1513  1514    1  0.0000000000      0.6508444444       3
     1493  1491  1513  1515    1  0.0000000000      0.6508444444       3
     4845  4847  4849  4850    1  0.0000000000      0.5439200000       3
     4845  4847  4849  4857    1  0.0000000000      2.1756800000       3
     4848  4847  4849  4850    1  0.0000000000      0.5020800000       3
     4848  4847  4849  4857    1  0.0000000000      0.5439200000       3
     4860  4847  4849  4850    1  0.0000000000      0.6508444444       3
     4860  4847  4849  4857    1  0.0000000000      0.6508444444       3
     4845  4847  4860  4844    1  180.0000000000    1.0041600000       2
     4845  4847  4860  4861    1  180.0000000000    1.0041600000       2
     4848  4847  4860  4844    1  0.0000000000      0.0000000000       1
     4848  4847  4860  4861    1  0.0000000000      0.0000000000       1
     4849  4847  4860  4844    1  180.0000000000    1.0041600000       2
     4849  4847  4860  4861    1  180.0000000000    1.0041600000       2
     4815  4816  4807  4805    1  180.0000000000    15.1670000000      2
     4807  4816  4817  4818    1  0.0000000000      0.0000000000       2
     4807  4816  4817  4819    1  0.0000000000      0.0000000000       2
     4807  4816  4817  4820    1  0.0000000000      0.0000000000       2
     4817  4816  4815  4814    1  180.0000000000    15.1670000000      2
     4807  4816  4815  6783    1  180.0000000000    15.1670000000      2
     4817  4816  4815  6783    1  180.0000000000    15.1670000000      2
     4766  4795  4796  4797    1  180.0000000000    15.1670000000      2
     4766  4795  4796  4798    1  180.0000000000    15.1670000000      2
     4794  4795  4796  4797    1  180.0000000000    15.1670000000      2
     4794  4795  4796  4798    1  180.0000000000    15.1670000000      2
     3613  3611  3609  3610    1  0.0000000000      0.6508444444       3
     3434  3611  3609  3610    1  0.0000000000      0.6508444444       3
     3434  3611  3609  3435    1  0.0000000000      0.6508444444       3
     3613  3611  3609  3435    1  0.0000000000      0.6508444444       3
     6777  6779  6781  6782    1  0.0000000000      0.5439200000       3
     6777  6779  6781  6789    1  0.0000000000      2.1756800000       3
     6780  6779  6781  6782    1  0.0000000000      0.5020800000       3
     6780  6779  6781  6789    1  0.0000000000      0.5439200000       3
     6792  6779  6781  6782    1  0.0000000000      0.6508444444       3
     6792  6779  6781  6789    1  0.0000000000      0.6508444444       3
     6777  6779  6792  6776    1  180.0000000000    1.0041600000       2
     6777  6779  6792  6793    1  180.0000000000    1.0041600000       2
     6780  6779  6792  6776    1  0.0000000000      0.0000000000       1
     6780  6779  6792  6793    1  0.0000000000      0.0000000000       1
     6781  6779  6792  6776    1  180.0000000000    1.0041600000       2
     6781  6779  6792  6793    1  180.0000000000    1.0041600000       2
     6787  6785  6783  6784    1  0.0000000000      0.6508444444       3
     4814  6785  6783  6784    1  0.0000000000      0.6508444444       3
     4814  6785  6783  4815    1  0.0000000000      0.6508444444       3
     6787  6785  6783  4815    1  0.0000000000      0.6508444444       3
     3607  3609  3611  3612    1  0.0000000000      0.6508444444       3
     3607  3609  3611  3613    1  0.0000000000      0.6508444444       3
     3610  3609  3611  3612    1  0.0000000000      0.6508444444       3
     3607  3609  3611  3434    1  0.0000000000      0.6508444444       3
     3435  3609  3611  3612    1  0.0000000000      0.6508444444       3
     3607  3615  3613  3611    1  0.0000000000      0.6508444444       3
     3613  3615  3607  3609    1  0.0000000000      0.6508444444       3
     1487  1511  1513  1491    1  0.0000000000      0.6508444444       3
     1487  1511  1513  1514    1  0.0000000000      0.6508444444       3
     1487  1511  1513  1515    1  0.0000000000      0.6508444444       3
     1509  1511  1513  1491    1  0.0000000000      0.6508444444       3
     1509  1511  1513  1514    1  0.0000000000      0.6508444444       3
     1509  1511  1513  1515    1  0.0000000000      0.6508444444       3
     1512  1511  1513  1491    1  0.0000000000      0.5439200000       3
     1512  1511  1513  1514    1  0.0000000000      0.5020800000       3
     1512  1511  1513  1515    1  0.0000000000      0.5020800000       3
     4835  4840  4841  4842    1  180.0000000000    15.1670000000      2
     4835  4840  4841  4863    1  180.0000000000    15.1670000000      2
     4861  4840  4841  4842    1  180.0000000000    15.1670000000      2
     4861  4840  4841  4863    1  180.0000000000    15.1670000000      2
     4835  4840  4861  4860    1  180.0000000000    15.1670000000      2
     4835  4840  4861  4862    1  180.0000000000    15.1670000000      2
     4841  4840  4861  4860    1  180.0000000000    15.1670000000      2
     4841  4840  4861  4862    1  180.0000000000    15.1670000000      2
     4814  4815  4816  4807    1  180.0000000000    15.1670000000      2
     4816  4815  4814  6785    1  180.0000000000    15.1670000000      2
     4814  4815  6783  6781    1  180.0000000000    1.0041600000       2
     4816  4815  6783  6781    1  180.0000000000    1.0041600000       2
     4814  4815  6783  6784    1  0.0000000000      0.0000000000       1
     4816  4815  6783  6784    1  0.0000000000      0.0000000000       1
     4814  4815  6783  6785    1  180.0000000000    1.0041600000       2
     4816  4815  6783  6785    1  180.0000000000    1.0041600000       2
     6785  6787  6777  6776    1  0.0000000000      0.6508444444       3
     6785  6787  6777  6778    1  0.0000000000      0.5439200000       3
     6785  6787  6777  6779    1  0.0000000000      2.1756800000       3
     6777  6787  6785  6783    1  0.0000000000      2.1756800000       3
     6788  6787  6785  6783    1  0.0000000000      0.5439200000       3
     6789  6787  6785  6783    1  0.0000000000      2.1756800000       3
     6777  6787  6785  6786    1  0.0000000000      0.5439200000       3
     6788  6787  6785  6786    1  0.0000000000      0.5020800000       3
     6789  6787  6785  6786    1  0.0000000000      0.5439200000       3
     6777  6787  6789  6781    1  0.0000000000      0.6508444444       3
     6777  6787  6789  6790    1  0.0000000000      0.6508444444       3
     6777  6787  6789  6791    1  0.0000000000      0.6508444444       3
     6785  6787  6789  6790    1  0.0000000000      0.6508444444       3
     6785  6787  6789  6791    1  0.0000000000      0.6508444444       3
     6788  6787  6789  6781    1  0.0000000000      0.5439200000       3
     6788  6787  6789  6790    1  0.0000000000      0.5020800000       3
     6788  6787  6789  6791    1  0.0000000000      0.5020800000       3
     6777  6787  6785  4814    1  0.0000000000      0.6508444444       3
     6788  6787  6785  4814    1  0.0000000000      0.6508444444       3
     6789  6787  6785  4814    1  0.0000000000      0.6508444444       3
     4814  4809  4808  4821    1  180.0000000000    15.1670000000      2
     4808  4809  4810  4811    1  0.0000000000      0.0000000000       2
     4808  4809  4810  4812    1  0.0000000000      0.0000000000       2
     4808  4809  4810  4813    1  0.0000000000      0.0000000000       2
     4808  4809  4814  4815    1  180.0000000000    15.1670000000      2
     4810  4809  4814  4815    1  180.0000000000    15.1670000000      2
     4808  4809  4814  6785    1  180.0000000000    15.1670000000      2
     4810  4809  4814  6785    1  180.0000000000    15.1670000000      2
     1491  1493  1495  1496    1  180.0000000000    1.0041600000       2
     1491  1493  1495  1504    1  180.0000000000    1.0041600000       2
     1494  1493  1495  1496    1  0.0000000000      0.0000000000       1
     1494  1493  1495  1504    1  0.0000000000      0.0000000000       1
     1509  1493  1495  1496    1  180.0000000000    1.0041600000       2
     1509  1493  1495  1504    1  180.0000000000    1.0041600000       2
     1491  1493  1509  1496    1  0.0000000000      0.6508444444       3
     1491  1493  1509  1510    1  0.0000000000      0.6508444444       3
     1491  1493  1509  1511    1  0.0000000000      0.6508444444       3
     1494  1493  1509  1496    1  0.0000000000      0.6508444444       3
     1494  1493  1509  1510    1  0.0000000000      0.6508444444       3
     1494  1493  1509  1511    1  0.0000000000      0.6508444444       3
     1495  1493  1509  1496    1  0.0000000000      0.6508444444       3
     1495  1493  1509  1510    1  0.0000000000      0.6508444444       3
     1495  1493  1509  1511    1  0.0000000000      0.6508444444       3
     4818  4817  4816  4815    1  0.0000000000      0.0000000000       2
     4819  4817  4816  4815    1  0.0000000000      0.0000000000       2
     4820  4817  4816  4815    1  0.0000000000      0.0000000000       2
     3603  3613  3615  3607    1  0.0000000000      0.6508444444       3
     3603  3613  3615  3616    1  0.0000000000      0.6508444444       3
     3603  3613  3615  3617    1  0.0000000000      0.6508444444       3
     3611  3613  3615  3616    1  0.0000000000      0.6508444444       3
     3611  3613  3615  3617    1  0.0000000000      0.6508444444       3
     3614  3613  3615  3607    1  0.0000000000      0.5439200000       3
     3614  3613  3615  3616    1  0.0000000000      0.5020800000       3
     3614  3613  3615  3617    1  0.0000000000      0.5020800000       3
     3611  3613  3603  3602    1  0.0000000000      0.6508444444       3
     3611  3613  3603  3604    1  0.0000000000      0.5439200000       3
     3611  3613  3603  3605    1  0.0000000000      2.1756800000       3
     3603  3613  3611  3609    1  0.0000000000      2.1756800000       3
     3614  3613  3611  3609    1  0.0000000000      0.5439200000       3
     3615  3613  3611  3609    1  0.0000000000      2.1756800000       3
     3603  3613  3611  3612    1  0.0000000000      0.5439200000       3
     3614  3613  3611  3612    1  0.0000000000      0.5020800000       3
     3615  3613  3611  3612    1  0.0000000000      0.5439200000       3
     3614  3613  3611  3434    1  0.0000000000      0.6508444444       3
     3615  3613  3611  3434    1  0.0000000000      0.6508444444       3
     3603  3613  3611  3434    1  0.0000000000      0.6508444444       3
     1487  1489  1491  1492    1  0.0000000000      0.5439200000       3
     1487  1489  1491  1493    1  0.0000000000      2.1756800000       3
     1487  1489  1491  1513    1  0.0000000000      2.1756800000       3
     1490  1489  1491  1492    1  0.0000000000      0.5020800000       3
     1490  1489  1491  1493    1  0.0000000000      0.5439200000       3
     1490  1489  1491  1513    1  0.0000000000      0.5439200000       3
     1516  1489  1491  1492    1  0.0000000000      0.6508444444       3
     1516  1489  1491  1493    1  0.0000000000      0.6508444444       3
     1516  1489  1491  1513    1  0.0000000000      0.6508444444       3
     1487  1489  1516  1486    1  180.0000000000    1.0041600000       2
     1487  1489  1516  1517    1  180.0000000000    1.0041600000       2
     1490  1489  1516  1486    1  0.0000000000      0.0000000000       1
     1490  1489  1516  1517    1  0.0000000000      0.0000000000       1
     1491  1489  1516  1486    1  180.0000000000    1.0041600000       2
     1491  1489  1516  1517    1  180.0000000000    1.0041600000       2
     6776  6792  6793  6772    1  180.0000000000    15.1670000000      2
     6776  6792  6793  6794    1  180.0000000000    15.1670000000      2
     6779  6792  6793  6772    1  180.0000000000    15.1670000000      2
     6779  6792  6793  6794    1  180.0000000000    15.1670000000      2
     6767  6772  6773  6774    1  180.0000000000    15.1670000000      2
     6767  6772  6773  6795    1  180.0000000000    15.1670000000      2
     6793  6772  6773  6774    1  180.0000000000    15.1670000000      2
     6793  6772  6773  6795    1  180.0000000000    15.1670000000      2
     6767  6772  6793  6792    1  180.0000000000    15.1670000000      2
     6767  6772  6793  6794    1  180.0000000000    15.1670000000      2
     6773  6772  6793  6792    1  180.0000000000    15.1670000000      2
     6773  6772  6793  6794    1  180.0000000000    15.1670000000      2
     4811  4810  4809  4814    1  0.0000000000      0.0000000000       2
     4812  4810  4809  4814    1  0.0000000000      0.0000000000       2
     4813  4810  4809  4814    1  0.0000000000      0.0000000000       2
     1486  1487  1489  1490    1  0.0000000000      0.6508444444       3
     1486  1487  1489  1491    1  0.0000000000      0.6508444444       3
     1486  1487  1489  1516    1  0.0000000000      0.6508444444       3
     1488  1487  1489  1490    1  0.0000000000      0.6508444444       3
     1488  1487  1489  1491    1  0.0000000000      0.6508444444       3
     1488  1487  1489  1516    1  0.0000000000      0.6508444444       3
     1511  1487  1489  1490    1  0.0000000000      0.6508444444       3
     1511  1487  1489  1491    1  0.0000000000      0.6508444444       3
     1511  1487  1489  1516    1  0.0000000000      0.6508444444       3
     1486  1487  1511  1509    1  0.0000000000      0.6508444444       3
     1486  1487  1511  1512    1  0.0000000000      0.6508444444       3
     1486  1487  1511  1513    1  0.0000000000      0.6508444444       3
     1488  1487  1511  1509    1  0.0000000000      0.5439200000       3
     1488  1487  1511  1512    1  0.0000000000      0.5020800000       3
     1488  1487  1511  1513    1  0.0000000000      0.5439200000       3
     1489  1487  1511  1509    1  0.0000000000      2.1756800000       3
     1489  1487  1511  1512    1  0.0000000000      0.5439200000       3
     1489  1487  1511  1513    1  0.0000000000      2.1756800000       3
     4796  4798  4799  4800    1  0.0000000000      0.0000000000       1
     4796  4798  4799  4801    1  180.0000000000    1.0041600000       2
     4796  4798  4799  4823    1  180.0000000000    1.0041600000       2
     4828  4798  4799  4800    1  0.0000000000      0.0000000000       1
     4828  4798  4799  4801    1  180.0000000000    1.0041600000       2
     4828  4798  4799  4823    1  180.0000000000    1.0041600000       2
     4796  4798  4828  4801    1  180.0000000000    15.1670000000      2
     4796  4798  4828  4829    1  180.0000000000    15.1670000000      2
     4799  4798  4828  4801    1  180.0000000000    15.1670000000      2
     4799  4798  4828  4829    1  180.0000000000    15.1670000000      2
     4807  4808  4809  4810    1  180.0000000000    15.1670000000      2
     4807  4808  4809  4814    1  180.0000000000    15.1670000000      2
     4821  4808  4809  4810    1  180.0000000000    15.1670000000      2
     4807  4808  4821  4805    1  180.0000000000    1.0041600000       2
     4807  4808  4821  4822    1  0.0000000000      0.0000000000       1
     4807  4808  4821  4823    1  180.0000000000    1.0041600000       2
     4809  4808  4821  4805    1  180.0000000000    1.0041600000       2
     4809  4808  4821  4822    1  0.0000000000      0.0000000000       1
     4809  4808  4821  4823    1  180.0000000000    1.0041600000       2
     4844  4860  4861  4840    1  180.0000000000    15.1670000000      2
     4844  4860  4861  4862    1  180.0000000000    15.1670000000      2
     4847  4860  4861  4840    1  180.0000000000    15.1670000000      2
     4847  4860  4861  4862    1  180.0000000000    15.1670000000      2
     6776  6777  6779  6780    1  0.0000000000      0.6508444444       3
     6776  6777  6779  6781    1  0.0000000000      0.6508444444       3
     6776  6777  6779  6792    1  0.0000000000      0.6508444444       3
     6778  6777  6779  6780    1  0.0000000000      0.6508444444       3
     6778  6777  6779  6781    1  0.0000000000      0.6508444444       3
     6778  6777  6779  6792    1  0.0000000000      0.6508444444       3
     6787  6777  6779  6780    1  0.0000000000      0.6508444444       3
     6787  6777  6779  6781    1  0.0000000000      0.6508444444       3
     6787  6777  6779  6792    1  0.0000000000      0.6508444444       3
     6776  6777  6787  6788    1  0.0000000000      0.6508444444       3
     6776  6777  6787  6789    1  0.0000000000      0.6508444444       3
     6778  6777  6787  6788    1  0.0000000000      0.5020800000       3
     6778  6777  6787  6789    1  0.0000000000      0.5439200000       3
     6779  6777  6787  6788    1  0.0000000000      0.5439200000       3
     6779  6777  6787  6789    1  0.0000000000      2.1756800000       3
     6024  6022  6020  6018    1  0.0000000000      2.1756800000       3
     6024  6022  6020  6021    1  0.0000000000      0.5439200000       3
     6024  6022  6020  6033    1  0.0000000000      0.6508444444       3
     6020  6022  6024  6025    1  0.0000000000      0.5439200000       3
     6020  6022  6024  6026    1  0.0000000000      2.1756800000       3
     6023  6022  6024  6025    1  0.0000000000      0.5020800000       3
     6023  6022  6024  6026    1  0.0000000000      0.5439200000       3
     6030  6022  6024  6025    1  0.0000000000      0.5439200000       3
     6030  6022  6024  6026    1  0.0000000000      2.1756800000       3
     6020  6022  6030  6028    1  0.0000000000      0.6508444444       3
     6020  6022  6030  6031    1  0.0000000000      0.6508444444       3
     6020  6022  6030  6032    1  0.0000000000      0.6508444444       3
     6023  6022  6030  6028    1  0.0000000000      0.5439200000       3
     6023  6022  6030  6031    1  0.0000000000      0.5020800000       3
     6023  6022  6030  6032    1  0.0000000000      0.5020800000       3
     6024  6022  6030  6031    1  0.0000000000      0.6508444444       3
     6024  6022  6030  6032    1  0.0000000000      0.6508444444       3
     6020  6022  6024  5505    1  0.0000000000      0.6508444444       3
     6023  6022  6024  5505    1  0.0000000000      0.6508444444       3
     6030  6022  6024  5505    1  0.0000000000      0.6508444444       3
     5461  5462  5463  5464    1  180.0000000000    15.1670000000      2
     5461  5462  5463  5465    1  180.0000000000    15.1670000000      2
     5484  5462  5463  5464    1  180.0000000000    15.1670000000      2
     5484  5462  5463  5465    1  180.0000000000    15.1670000000      2
     5461  5462  5484  5485    1  180.0000000000    4.1840000000       2
     5461  5462  5484  5519    1  180.0000000000    4.1840000000       2
     5463  5462  5484  5485    1  180.0000000000    4.1840000000       2
     5463  5462  5484  5519    1  180.0000000000    4.1840000000       2
     5462  5463  5465  5466    1  180.0000000000    15.1670000000      2
     5462  5463  5465  5481    1  180.0000000000    15.1670000000      2
     5464  5463  5465  5466    1  180.0000000000    15.1670000000      2
     5464  5463  5465  5481    1  180.0000000000    15.1670000000      2
     5456  5461  5462  5463    1  180.0000000000    15.1670000000      2
     5456  5461  5462  5484    1  180.0000000000    15.1670000000      2
     5482  5461  5462  5463    1  180.0000000000    15.1670000000      2
     5482  5461  5462  5484    1  180.0000000000    15.1670000000      2
     5456  5461  5482  5481    1  180.0000000000    15.1670000000      2
     5456  5461  5482  5483    1  180.0000000000    15.1670000000      2
     5462  5461  5482  5481    1  180.0000000000    15.1670000000      2
     5462  5461  5482  5483    1  180.0000000000    15.1670000000      2
     5463  5465  5466  5467    1  0.0000000000      0.0000000000       1
     5463  5465  5466  5468    1  180.0000000000    1.0041600000       2
     5463  5465  5466  5476    1  180.0000000000    1.0041600000       2
     5481  5465  5466  5467    1  0.0000000000      0.0000000000       1
     5481  5465  5466  5468    1  180.0000000000    1.0041600000       2
     5481  5465  5466  5476    1  180.0000000000    1.0041600000       2
     5463  5465  5481  5468    1  180.0000000000    15.1670000000      2
     5463  5465  5481  5482    1  180.0000000000    15.1670000000      2
     5466  5465  5481  5468    1  180.0000000000    15.1670000000      2
     5466  5465  5481  5482    1  180.0000000000    15.1670000000      2
     5465  5466  5468  5469    1  0.0000000000      0.6508444444       3
     5465  5466  5468  5470    1  0.0000000000      0.6508444444       3
     5465  5466  5468  5481    1  0.0000000000      0.6508444444       3
     5467  5466  5468  5469    1  0.0000000000      0.6508444444       3
     5467  5466  5468  5470    1  0.0000000000      0.6508444444       3
     5467  5466  5468  5481    1  0.0000000000      0.6508444444       3
     5476  5466  5468  5469    1  0.0000000000      0.6508444444       3
     5476  5466  5468  5470    1  0.0000000000      0.6508444444       3
     5476  5466  5468  5481    1  0.0000000000      0.6508444444       3
     5465  5466  5476  5477    1  0.0000000000      0.6508444444       3
     5465  5466  5476  5478    1  0.0000000000      0.6508444444       3
     5467  5466  5476  5477    1  0.0000000000      0.5020800000       3
     5467  5466  5476  5478    1  0.0000000000      0.5439200000       3
     5468  5466  5476  5477    1  0.0000000000      0.5439200000       3
     5468  5466  5476  5478    1  0.0000000000      2.1756800000       3
     5462  5484  5485  5456    1  180.0000000000    15.1670000000      2
     5462  5484  5485  5486    1  180.0000000000    15.1670000000      2
     5519  5484  5485  5456    1  180.0000000000    15.1670000000      2
     5519  5484  5485  5486    1  180.0000000000    15.1670000000      2
     5462  5484  5519  5518    1  180.0000000000    15.1670000000      2
     5462  5484  5519  5520    1  180.0000000000    15.1670000000      2
     5485  5484  5519  5518    1  180.0000000000    15.1670000000      2
     5485  5484  5519  5520    1  180.0000000000    15.1670000000      2
     5504  5505  5506  5497    1  180.0000000000    15.1670000000      2
     5506  5505  5504  6026    1  180.0000000000    15.1670000000      2
     5506  5505  6024  6022    1  180.0000000000    1.0041600000       2
     5504  5505  6024  6022    1  180.0000000000    1.0041600000       2
     5506  5505  6024  6025    1  0.0000000000      0.0000000000       1
     5504  5505  6024  6025    1  0.0000000000      0.0000000000       1
     5506  5505  6024  6026    1  180.0000000000    1.0041600000       2
     5504  5505  6024  6026    1  180.0000000000    1.0041600000       2
     5505  5506  5497  5495    1  180.0000000000    15.1670000000      2
     5507  5506  5505  5504    1  180.0000000000    15.1670000000      2
     5497  5506  5507  5508    1  0.0000000000      0.0000000000       2
     5497  5506  5507  5509    1  0.0000000000      0.0000000000       2
     5497  5506  5507  5510    1  0.0000000000      0.0000000000       2
     5497  5506  5505  6024    1  180.0000000000    15.1670000000      2
     5507  5506  5505  6024    1  180.0000000000    15.1670000000      2
     6022  6024  6026  6027    1  0.0000000000      0.6508444444       3
     6022  6024  6026  6028    1  0.0000000000      0.6508444444       3
     6025  6024  6026  6027    1  0.0000000000      0.6508444444       3
     6022  6024  6026  5504    1  0.0000000000      0.6508444444       3
     5505  6024  6026  6027    1  0.0000000000      0.6508444444       3
     6018  6020  6022  6023    1  0.0000000000      0.5439200000       3
     6018  6020  6022  6030    1  0.0000000000      2.1756800000       3
     6021  6020  6022  6023    1  0.0000000000      0.5020800000       3
     6021  6020  6022  6030    1  0.0000000000      0.5439200000       3
     6033  6020  6022  6023    1  0.0000000000      0.6508444444       3
     6033  6020  6022  6030    1  0.0000000000      0.6508444444       3
     6018  6020  6033  6017    1  180.0000000000    1.0041600000       2
     6018  6020  6033  6034    1  180.0000000000    1.0041600000       2
     6021  6020  6033  6017    1  0.0000000000      0.0000000000       1
     6021  6020  6033  6034    1  0.0000000000      0.0000000000       1
     6022  6020  6033  6017    1  180.0000000000    1.0041600000       2
     6022  6020  6033  6034    1  180.0000000000    1.0041600000       2
     5495  5497  5498  5499    1  180.0000000000    15.1670000000      2
     5495  5497  5498  5511    1  180.0000000000    15.1670000000      2
     5506  5497  5498  5499    1  180.0000000000    15.1670000000      2
     5506  5497  5498  5511    1  180.0000000000    15.1670000000      2
     5495  5497  5506  5507    1  180.0000000000    15.1670000000      2
     5498  5497  5506  5505    1  180.0000000000    15.1670000000      2
     5498  5497  5506  5507    1  180.0000000000    15.1670000000      2
     5488  5518  5519  5484    1  180.0000000000    15.1670000000      2
     5488  5518  5519  5520    1  180.0000000000    15.1670000000      2
     5491  5518  5519  5484    1  180.0000000000    15.1670000000      2
     5491  5518  5519  5520    1  180.0000000000    15.1670000000      2
     5493  5495  5497  5498    1  180.0000000000    1.0041600000       2
     5493  5495  5497  5506    1  180.0000000000    1.0041600000       2
     5496  5495  5497  5498    1  0.0000000000      0.0000000000       1
     5496  5495  5497  5506    1  0.0000000000      0.0000000000       1
     5511  5495  5497  5498    1  180.0000000000    1.0041600000       2
     5511  5495  5497  5506    1  180.0000000000    1.0041600000       2
     5493  5495  5511  5498    1  0.0000000000      0.6508444444       3
     5493  5495  5511  5512    1  0.0000000000      0.6508444444       3
     5493  5495  5511  5513    1  0.0000000000      0.6508444444       3
     5496  5495  5511  5498    1  0.0000000000      0.6508444444       3
     5496  5495  5511  5512    1  0.0000000000      0.6508444444       3
     5496  5495  5511  5513    1  0.0000000000      0.6508444444       3
     5497  5495  5511  5498    1  0.0000000000      0.6508444444       3
     5497  5495  5511  5512    1  0.0000000000      0.6508444444       3
     5497  5495  5511  5513    1  0.0000000000      0.6508444444       3
     5489  5491  5493  5494    1  0.0000000000      0.5439200000       3
     5489  5491  5493  5495    1  0.0000000000      2.1756800000       3
     5489  5491  5493  5515    1  0.0000000000      2.1756800000       3
     5492  5491  5493  5494    1  0.0000000000      0.5020800000       3
     5492  5491  5493  5495    1  0.0000000000      0.5439200000       3
     5492  5491  5493  5515    1  0.0000000000      0.5439200000       3
     5518  5491  5493  5494    1  0.0000000000      0.6508444444       3
     5518  5491  5493  5495    1  0.0000000000      0.6508444444       3
     5518  5491  5493  5515    1  0.0000000000      0.6508444444       3
     5489  5491  5518  5488    1  180.0000000000    1.0041600000       2
     5489  5491  5518  5519    1  180.0000000000    1.0041600000       2
     5492  5491  5518  5488    1  0.0000000000      0.0000000000       1
     5492  5491  5518  5519    1  0.0000000000      0.0000000000       1
     5493  5491  5518  5488    1  180.0000000000    1.0041600000       2
     5493  5491  5518  5519    1  180.0000000000    1.0041600000       2
     5465  5481  5482  5461    1  180.0000000000    15.1670000000      2
     5465  5481  5482  5483    1  180.0000000000    15.1670000000      2
     5468  5481  5482  5461    1  180.0000000000    15.1670000000      2
     5468  5481  5482  5483    1  180.0000000000    15.1670000000      2
     5466  5476  5478  5470    1  0.0000000000      0.6508444444       3
     5466  5476  5478  5479    1  0.0000000000      0.6508444444       3
     5466  5476  5478  5480    1  0.0000000000      0.6508444444       3
     5474  5476  5478  5479    1  0.0000000000      0.6508444444       3
     5474  5476  5478  5480    1  0.0000000000      0.6508444444       3
     5477  5476  5478  5470    1  0.0000000000      0.5439200000       3
     5477  5476  5478  5479    1  0.0000000000      0.5020800000       3
     5477  5476  5478  5480    1  0.0000000000      0.5020800000       3
     5466  5476  5474  5472    1  0.0000000000      2.1756800000       3
     5477  5476  5474  5472    1  0.0000000000      0.5439200000       3
     5478  5476  5474  5472    1  0.0000000000      2.1756800000       3
     5466  5476  5474  5475    1  0.0000000000      0.5439200000       3
     5477  5476  5474  5475    1  0.0000000000      0.5020800000       3
     5478  5476  5474  5475    1  0.0000000000      0.5439200000       3
     5474  5476  5466  5465    1  0.0000000000      0.6508444444       3
     5474  5476  5466  5467    1  0.0000000000      0.5439200000       3
     5474  5476  5466  5468    1  0.0000000000      2.1756800000       3
     5477  5476  5474  3710    1  0.0000000000      0.6508444444       3
     5478  5476  5474  3710    1  0.0000000000      0.6508444444       3
     5466  5476  5474  3710    1  0.0000000000      0.6508444444       3
     5491  5493  5495  5496    1  0.0000000000      0.5439200000       3
     5491  5493  5495  5497    1  0.0000000000      0.6508444444       3
     5491  5493  5495  5511    1  0.0000000000      2.1756800000       3
     5494  5493  5495  5496    1  0.0000000000      0.5020800000       3
     5494  5493  5495  5497    1  0.0000000000      0.6508444444       3
     5494  5493  5495  5511    1  0.0000000000      0.5439200000       3
     5515  5493  5495  5496    1  0.0000000000      0.5439200000       3
     5515  5493  5495  5497    1  0.0000000000      0.6508444444       3
     5515  5493  5495  5511    1  0.0000000000      2.1756800000       3
     5491  5493  5515  5513    1  0.0000000000      0.6508444444       3
     5491  5493  5515  5516    1  0.0000000000      0.6508444444       3
     5491  5493  5515  5517    1  0.0000000000      0.6508444444       3
     5494  5493  5515  5513    1  0.0000000000      0.5439200000       3
     5494  5493  5515  5516    1  0.0000000000      0.5020800000       3
     5494  5493  5515  5517    1  0.0000000000      0.5020800000       3
     5495  5493  5515  5513    1  0.0000000000      0.6508444444       3
     5495  5493  5515  5516    1  0.0000000000      0.6508444444       3
     5495  5493  5515  5517    1  0.0000000000      0.6508444444       3
     3490  3492  3494  3495    1  0.0000000000      0.5439200000       3
     3490  3492  3494  3496    1  0.0000000000      0.6508444444       3
     3490  3492  3494  3510    1  0.0000000000      2.1756800000       3
     3493  3492  3494  3495    1  0.0000000000      0.5020800000       3
     3493  3492  3494  3496    1  0.0000000000      0.6508444444       3
     3493  3492  3494  3510    1  0.0000000000      0.5439200000       3
     3514  3492  3494  3495    1  0.0000000000      0.5439200000       3
     3514  3492  3494  3496    1  0.0000000000      0.6508444444       3
     3514  3492  3494  3510    1  0.0000000000      2.1756800000       3
     3490  3492  3514  3512    1  0.0000000000      0.6508444444       3
     3490  3492  3514  3515    1  0.0000000000      0.6508444444       3
     3490  3492  3514  3516    1  0.0000000000      0.6508444444       3
     3493  3492  3514  3512    1  0.0000000000      0.5439200000       3
     3493  3492  3514  3515    1  0.0000000000      0.5020800000       3
     3493  3492  3514  3516    1  0.0000000000      0.5020800000       3
     3494  3492  3514  3512    1  0.0000000000      0.6508444444       3
     3494  3492  3514  3515    1  0.0000000000      0.6508444444       3
     3494  3492  3514  3516    1  0.0000000000      0.6508444444       3
     3492  3494  3496  3497    1  180.0000000000    1.0041600000       2
     3492  3494  3496  3505    1  180.0000000000    1.0041600000       2
     3495  3494  3496  3497    1  0.0000000000      0.0000000000       1
     3495  3494  3496  3505    1  0.0000000000      0.0000000000       1
     3510  3494  3496  3497    1  180.0000000000    1.0041600000       2
     3510  3494  3496  3505    1  180.0000000000    1.0041600000       2
     3492  3494  3510  3497    1  0.0000000000      0.6508444444       3
     3492  3494  3510  3511    1  0.0000000000      0.6508444444       3
     3492  3494  3510  3512    1  0.0000000000      0.6508444444       3
     3495  3494  3510  3497    1  0.0000000000      0.6508444444       3
     3495  3494  3510  3511    1  0.0000000000      0.6508444444       3
     3495  3494  3510  3512    1  0.0000000000      0.6508444444       3
     3496  3494  3510  3497    1  0.0000000000      0.6508444444       3
     3496  3494  3510  3511    1  0.0000000000      0.6508444444       3
     3496  3494  3510  3512    1  0.0000000000      0.6508444444       3
     3494  3496  3497  3498    1  180.0000000000    15.1670000000      2
     3494  3496  3497  3510    1  180.0000000000    15.1670000000      2
     3505  3496  3497  3498    1  180.0000000000    15.1670000000      2
     3505  3496  3497  3510    1  180.0000000000    15.1670000000      2
     3494  3496  3505  3506    1  180.0000000000    15.1670000000      2
     3497  3496  3505  3504    1  180.0000000000    15.1670000000      2
     3497  3496  3505  3506    1  180.0000000000    15.1670000000      2
     6022  6030  6028  6026    1  0.0000000000      0.6508444444       3
     6028  6030  6022  6024    1  0.0000000000      0.6508444444       3
     5508  5507  5506  5505    1  0.0000000000      0.0000000000       2
     5509  5507  5506  5505    1  0.0000000000      0.0000000000       2
     5510  5507  5506  5505    1  0.0000000000      0.0000000000       2
     3494  3510  3512  3488    1  0.0000000000      2.1756800000       3
     3494  3510  3512  3513    1  0.0000000000      0.5439200000       3
     3494  3510  3512  3514    1  0.0000000000      2.1756800000       3
     3497  3510  3512  3488    1  0.0000000000      0.6508444444       3
     3497  3510  3512  3513    1  0.0000000000      0.6508444444       3
     3497  3510  3512  3514    1  0.0000000000      0.6508444444       3
     3511  3510  3512  3488    1  0.0000000000      0.5439200000       3
     3511  3510  3512  3513    1  0.0000000000      0.5020800000       3
     3511  3510  3512  3514    1  0.0000000000      0.5439200000       3
     3504  3505  3496  3494    1  180.0000000000    15.1670000000      2
     3506  3505  3504  3503    1  180.0000000000    15.1670000000      2
     3496  3505  3506  3507    1  0.0000000000      0.0000000000       2
     3496  3505  3506  3508    1  0.0000000000      0.0000000000       2
     3496  3505  3506  3509    1  0.0000000000      0.0000000000       2
     3496  3505  3504  1403    1  180.0000000000    15.1670000000      2
     3506  3505  3504  1403    1  180.0000000000    15.1670000000      2
     3507  3506  3505  3504    1  0.0000000000      0.0000000000       2
     3508  3506  3505  3504    1  0.0000000000      0.0000000000       2
     3509  3506  3505  3504    1  0.0000000000      0.0000000000       2
     3496  3497  3498  3499    1  180.0000000000    15.1670000000      2
     3496  3497  3498  3503    1  180.0000000000    15.1670000000      2
     3510  3497  3498  3499    1  180.0000000000    15.1670000000      2
     3496  3497  3510  3494    1  180.0000000000    1.0041600000       2
     3496  3497  3510  3511    1  0.0000000000      0.0000000000       1
     3496  3497  3510  3512    1  180.0000000000    1.0041600000       2
     3498  3497  3510  3494    1  180.0000000000    1.0041600000       2
     3498  3497  3510  3511    1  0.0000000000      0.0000000000       1
     3498  3497  3510  3512    1  180.0000000000    1.0041600000       2
     3488  3512  3514  3492    1  0.0000000000      0.6508444444       3
     3488  3512  3514  3515    1  0.0000000000      0.6508444444       3
     3488  3512  3514  3516    1  0.0000000000      0.6508444444       3
     3510  3512  3514  3492    1  0.0000000000      0.6508444444       3
     3510  3512  3514  3515    1  0.0000000000      0.6508444444       3
     3510  3512  3514  3516    1  0.0000000000      0.6508444444       3
     3513  3512  3514  3492    1  0.0000000000      0.5439200000       3
     3513  3512  3514  3515    1  0.0000000000      0.5020800000       3
     3513  3512  3514  3516    1  0.0000000000      0.5020800000       3
     3488  3490  3492  3493    1  0.0000000000      0.5439200000       3
     3488  3490  3492  3494    1  0.0000000000      2.1756800000       3
     3488  3490  3492  3514    1  0.0000000000      2.1756800000       3
     3491  3490  3492  3493    1  0.0000000000      0.5020800000       3
     3491  3490  3492  3494    1  0.0000000000      0.5439200000       3
     3491  3490  3492  3514    1  0.0000000000      0.5439200000       3
     3517  3490  3492  3493    1  0.0000000000      0.6508444444       3
     3517  3490  3492  3494    1  0.0000000000      0.6508444444       3
     3517  3490  3492  3514    1  0.0000000000      0.6508444444       3
     3488  3490  3517  3487    1  180.0000000000    1.0041600000       2
     3488  3490  3517  3518    1  180.0000000000    1.0041600000       2
     3491  3490  3517  3487    1  0.0000000000      0.0000000000       1
     3491  3490  3517  3518    1  0.0000000000      0.0000000000       1
     3492  3490  3517  3487    1  180.0000000000    1.0041600000       2
     3492  3490  3517  3518    1  180.0000000000    1.0041600000       2
     5456  5485  5486  5487    1  180.0000000000    15.1670000000      2
     5456  5485  5486  5488    1  180.0000000000    15.1670000000      2
     5484  5485  5486  5487    1  180.0000000000    15.1670000000      2
     5484  5485  5486  5488    1  180.0000000000    15.1670000000      2
     5499  5504  5505  5506    1  180.0000000000    15.1670000000      2
     6026  5504  5505  6024    1  180.0000000000    15.1670000000      2
     5499  5504  6026  6027    1  0.0000000000      0.0000000000       1
     5505  5504  6026  6027    1  0.0000000000      0.0000000000       1
     5499  5504  6026  6028    1  180.0000000000    1.0041600000       2
     5505  5504  6026  6028    1  180.0000000000    1.0041600000       2
     5499  5504  6026  6024    1  180.0000000000    1.0041600000       2
     5505  5504  6026  6024    1  180.0000000000    1.0041600000       2
     5499  5504  5505  6024    1  180.0000000000    15.1670000000      2
     6017  6018  6020  6021    1  0.0000000000      0.6508444444       3
     6017  6018  6020  6022    1  0.0000000000      0.6508444444       3
     6017  6018  6020  6033    1  0.0000000000      0.6508444444       3
     6019  6018  6020  6021    1  0.0000000000      0.6508444444       3
     6019  6018  6020  6022    1  0.0000000000      0.6508444444       3
     6019  6018  6020  6033    1  0.0000000000      0.6508444444       3
     6028  6018  6020  6021    1  0.0000000000      0.6508444444       3
     6028  6018  6020  6022    1  0.0000000000      0.6508444444       3
     6028  6018  6020  6033    1  0.0000000000      0.6508444444       3
     6017  6018  6028  6029    1  0.0000000000      0.6508444444       3
     6017  6018  6028  6030    1  0.0000000000      0.6508444444       3
     6019  6018  6028  6029    1  0.0000000000      0.5020800000       3
     6019  6018  6028  6030    1  0.0000000000      0.5439200000       3
     6020  6018  6028  6029    1  0.0000000000      0.5439200000       3
     6020  6018  6028  6030    1  0.0000000000      2.1756800000       3
     6028  6026  6024  6025    1  0.0000000000      0.6508444444       3
     5504  6026  6024  6025    1  0.0000000000      0.6508444444       3
     5504  6026  6024  5505    1  0.0000000000      0.6508444444       3
     6028  6026  6024  5505    1  0.0000000000      0.6508444444       3
     5497  5498  5499  5500    1  180.0000000000    15.1670000000      2
     5497  5498  5499  5504    1  180.0000000000    15.1670000000      2
     5511  5498  5499  5500    1  180.0000000000    15.1670000000      2
     5497  5498  5511  5495    1  180.0000000000    1.0041600000       2
     5497  5498  5511  5512    1  0.0000000000      0.0000000000       1
     5497  5498  5511  5513    1  180.0000000000    1.0041600000       2
     5499  5498  5511  5495    1  180.0000000000    1.0041600000       2
     5499  5498  5511  5512    1  0.0000000000      0.0000000000       1
     5499  5498  5511  5513    1  180.0000000000    1.0041600000       2
     2140  2144  2145  2146    1  0.0000000000      0.5439200000       3
     2140  2144  2145  2147    1  0.0000000000      0.5439200000       3
     2140  2144  2145  2148    1  0.0000000000      0.5439200000       3
     2149  2144  2145  2146    1  0.0000000000      0.6508444444       3
     2149  2144  2145  2147    1  0.0000000000      0.6508444444       3
     2149  2144  2145  2148    1  0.0000000000      0.6508444444       3
     2173  2144  2145  2146    1  0.0000000000      0.6508444444       3
     2173  2144  2145  2147    1  0.0000000000      0.6508444444       3
     2173  2144  2145  2148    1  0.0000000000      0.6508444444       3
     2140  2144  2149  2150    1  0.0000000000      0.0000000000       2
     2140  2144  2149  2170    1  180.0000000000    1.0041600000       2
     2145  2144  2149  2150    1  0.0000000000      0.0000000000       2
     2145  2144  2149  2170    1  180.0000000000    1.0041600000       2
     2173  2144  2149  2150    1  0.0000000000      0.0000000000       2
     2173  2144  2149  2170    1  180.0000000000    0.0000000000       2
     2140  2144  2173  2172    1  0.0000000000      0.0000000000       2
     2140  2144  2173  2174    1  180.0000000000    1.0041600000       2
     2145  2144  2173  2172    1  0.0000000000      0.0000000000       2
     2145  2144  2173  2174    1  180.0000000000    1.0041600000       2
     2149  2144  2173  2172    1  0.0000000000      0.0000000000       2
     2149  2144  2173  2174    1  180.0000000000    0.0000000000       2
     5486  5488  5489  5490    1  0.0000000000      0.0000000000       1
     5486  5488  5489  5491    1  180.0000000000    1.0041600000       2
     5486  5488  5489  5513    1  180.0000000000    1.0041600000       2
     5518  5488  5489  5490    1  0.0000000000      0.0000000000       1
     5518  5488  5489  5491    1  180.0000000000    1.0041600000       2
     5518  5488  5489  5513    1  180.0000000000    1.0041600000       2
     5486  5488  5518  5491    1  180.0000000000    15.1670000000      2
     5486  5488  5518  5519    1  180.0000000000    15.1670000000      2
     5489  5488  5518  5491    1  180.0000000000    15.1670000000      2
     5489  5488  5518  5519    1  180.0000000000    15.1670000000      2
     5466  5468  5470  5471    1  0.0000000000      0.5439200000       3
     5466  5468  5470  5478    1  0.0000000000      2.1756800000       3
     5469  5468  5470  5471    1  0.0000000000      0.5020800000       3
     5469  5468  5470  5478    1  0.0000000000      0.5439200000       3
     5481  5468  5470  5471    1  0.0000000000      0.6508444444       3
     5481  5468  5470  5478    1  0.0000000000      0.6508444444       3
     5466  5468  5481  5465    1  180.0000000000    1.0041600000       2
     5466  5468  5481  5482    1  180.0000000000    1.0041600000       2
     5469  5468  5481  5465    1  0.0000000000      0.0000000000       1
     5469  5468  5481  5482    1  0.0000000000      0.0000000000       1
     5470  5468  5481  5465    1  180.0000000000    1.0041600000       2
     5470  5468  5481  5482    1  180.0000000000    1.0041600000       2
     5452  5456  5457  5458    1  0.0000000000      0.5439200000       3
     5452  5456  5457  5459    1  0.0000000000      0.5439200000       3
     5452  5456  5457  5460    1  0.0000000000      0.5439200000       3
     5461  5456  5457  5458    1  0.0000000000      0.6508444444       3
     5461  5456  5457  5459    1  0.0000000000      0.6508444444       3
     5461  5456  5457  5460    1  0.0000000000      0.6508444444       3
     5485  5456  5457  5458    1  0.0000000000      0.6508444444       3
     5485  5456  5457  5459    1  0.0000000000      0.6508444444       3
     5485  5456  5457  5460    1  0.0000000000      0.6508444444       3
     5452  5456  5461  5462    1  0.0000000000      0.0000000000       2
     5452  5456  5461  5482    1  180.0000000000    1.0041600000       2
     5457  5456  5461  5462    1  0.0000000000      0.0000000000       2
     5457  5456  5461  5482    1  180.0000000000    1.0041600000       2
     5485  5456  5461  5462    1  0.0000000000      0.0000000000       2
     5485  5456  5461  5482    1  180.0000000000    0.0000000000       2
     5452  5456  5485  5484    1  0.0000000000      0.0000000000       2
     5452  5456  5485  5486    1  180.0000000000    1.0041600000       2
     5457  5456  5485  5484    1  0.0000000000      0.0000000000       2
     5457  5456  5485  5486    1  180.0000000000    1.0041600000       2
     5461  5456  5485  5484    1  0.0000000000      0.0000000000       2
     5461  5456  5485  5486    1  180.0000000000    0.0000000000       2
     3971  3995  3997  3975    1  0.0000000000      0.6508444444       3
     3971  3995  3997  3998    1  0.0000000000      0.6508444444       3
     3971  3995  3997  3999    1  0.0000000000      0.6508444444       3
     3993  3995  3997  3975    1  0.0000000000      0.6508444444       3
     3993  3995  3997  3998    1  0.0000000000      0.6508444444       3
     3993  3995  3997  3999    1  0.0000000000      0.6508444444       3
     3996  3995  3997  3975    1  0.0000000000      0.5439200000       3
     3996  3995  3997  3998    1  0.0000000000      0.5020800000       3
     3996  3995  3997  3999    1  0.0000000000      0.5020800000       3
     2141  2140  2144  2145    1  0.0000000000      0.5439200000       3
     2141  2140  2144  2149    1  0.0000000000      0.6508444444       3
     2141  2140  2144  2173    1  0.0000000000      0.6508444444       3
     2142  2140  2144  2145    1  0.0000000000      0.5439200000       3
     2142  2140  2144  2149    1  0.0000000000      0.6508444444       3
     2142  2140  2144  2173    1  0.0000000000      0.6508444444       3
     2143  2140  2144  2145    1  0.0000000000      0.5439200000       3
     2143  2140  2144  2149    1  0.0000000000      0.6508444444       3
     2143  2140  2144  2173    1  0.0000000000      0.6508444444       3
     1497  1502  1503  1504    1  180.0000000000    15.1670000000      2
     1497  1502  1503  6231    1  180.0000000000    15.1670000000      2
     1497  1502  6233  6231    1  180.0000000000    1.0041600000       2
     1503  1502  6233  6231    1  180.0000000000    1.0041600000       2
     1497  1502  6233  6234    1  0.0000000000      0.0000000000       1
     1503  1502  6233  6234    1  0.0000000000      0.0000000000       1
     1497  1502  6233  6235    1  180.0000000000    1.0041600000       2
     1503  1502  6233  6235    1  180.0000000000    1.0041600000       2
     4803  4805  4807  4808    1  180.0000000000    1.0041600000       2
     4803  4805  4807  4816    1  180.0000000000    1.0041600000       2
     4806  4805  4807  4808    1  0.0000000000      0.0000000000       1
     4806  4805  4807  4816    1  0.0000000000      0.0000000000       1
     4821  4805  4807  4808    1  180.0000000000    1.0041600000       2
     4821  4805  4807  4816    1  180.0000000000    1.0041600000       2
     4803  4805  4821  4808    1  0.0000000000      0.6508444444       3
     4803  4805  4821  4822    1  0.0000000000      0.6508444444       3
     4803  4805  4821  4823    1  0.0000000000      0.6508444444       3
     4806  4805  4821  4808    1  0.0000000000      0.6508444444       3
     4806  4805  4821  4822    1  0.0000000000      0.6508444444       3
     4806  4805  4821  4823    1  0.0000000000      0.6508444444       3
     4807  4805  4821  4808    1  0.0000000000      0.6508444444       3
     4807  4805  4821  4822    1  0.0000000000      0.6508444444       3
     4807  4805  4821  4823    1  0.0000000000      0.6508444444       3
     3990  3989  3988  3987    1  0.0000000000      0.0000000000       2
     3991  3989  3988  3987    1  0.0000000000      0.0000000000       2
     3992  3989  3988  3987    1  0.0000000000      0.0000000000       2
     3977  3979  3980  3981    1  180.0000000000    15.1670000000      2
     3977  3979  3980  3993    1  180.0000000000    15.1670000000      2
     3988  3979  3980  3981    1  180.0000000000    15.1670000000      2
     3988  3979  3980  3993    1  180.0000000000    15.1670000000      2
     3977  3979  3988  3989    1  180.0000000000    15.1670000000      2
     3980  3979  3988  3987    1  180.0000000000    15.1670000000      2
     3980  3979  3988  3989    1  180.0000000000    15.1670000000      2
     4799  4823  4825  4803    1  0.0000000000      0.6508444444       3
     4799  4823  4825  4826    1  0.0000000000      0.6508444444       3
     4799  4823  4825  4827    1  0.0000000000      0.6508444444       3
     4821  4823  4825  4803    1  0.0000000000      0.6508444444       3
     4821  4823  4825  4826    1  0.0000000000      0.6508444444       3
     4821  4823  4825  4827    1  0.0000000000      0.6508444444       3
     4824  4823  4825  4803    1  0.0000000000      0.5439200000       3
     4824  4823  4825  4826    1  0.0000000000      0.5020800000       3
     4824  4823  4825  4827    1  0.0000000000      0.5020800000       3
     3977  3993  3995  3971    1  0.0000000000      2.1756800000       3
     3977  3993  3995  3996    1  0.0000000000      0.5439200000       3
     3977  3993  3995  3997    1  0.0000000000      2.1756800000       3
     3980  3993  3995  3971    1  0.0000000000      0.6508444444       3
     3980  3993  3995  3996    1  0.0000000000      0.6508444444       3
     3980  3993  3995  3997    1  0.0000000000      0.6508444444       3
     3994  3993  3995  3971    1  0.0000000000      0.5439200000       3
     3994  3993  3995  3996    1  0.0000000000      0.5020800000       3
     3994  3993  3995  3997    1  0.0000000000      0.5439200000       3
     3979  3980  3981  3982    1  180.0000000000    15.1670000000      2
     3979  3980  3981  3986    1  180.0000000000    15.1670000000      2
     3993  3980  3981  3982    1  180.0000000000    15.1670000000      2
     3979  3980  3993  3977    1  180.0000000000    1.0041600000       2
     3979  3980  3993  3994    1  0.0000000000      0.0000000000       1
     3979  3980  3993  3995    1  180.0000000000    1.0041600000       2
     3981  3980  3993  3977    1  180.0000000000    1.0041600000       2
     3981  3980  3993  3994    1  0.0000000000      0.0000000000       1
     3981  3980  3993  3995    1  180.0000000000    1.0041600000       2
     1459  1460  1461  1462    1  180.0000000000    15.1670000000      2
     1459  1460  1461  1463    1  180.0000000000    15.1670000000      2
     1482  1460  1461  1462    1  180.0000000000    15.1670000000      2
     1482  1460  1461  1463    1  180.0000000000    15.1670000000      2
     1459  1460  1482  1483    1  180.0000000000    4.1840000000       2
     1459  1460  1482  1517    1  180.0000000000    4.1840000000       2
     1461  1460  1482  1483    1  180.0000000000    4.1840000000       2
     1461  1460  1482  1517    1  180.0000000000    4.1840000000       2
     1499  1498  1497  1502    1  0.0000000000      0.0000000000       2
     1500  1498  1497  1502    1  0.0000000000      0.0000000000       2
     1501  1498  1497  1502    1  0.0000000000      0.0000000000       2
     1502  1497  1496  1509    1  180.0000000000    15.1670000000      2
     1496  1497  1498  1499    1  0.0000000000      0.0000000000       2
     1496  1497  1498  1500    1  0.0000000000      0.0000000000       2
     1496  1497  1498  1501    1  0.0000000000      0.0000000000       2
     1496  1497  1502  1503    1  180.0000000000    15.1670000000      2
     1498  1497  1502  1503    1  180.0000000000    15.1670000000      2
     1496  1497  1502  6233    1  180.0000000000    15.1670000000      2
     1498  1497  1502  6233    1  180.0000000000    15.1670000000      2
     1483  1484  1486  1487    1  180.0000000000    15.1670000000      2
     1483  1484  1486  1516    1  180.0000000000    15.1670000000      2
     1485  1484  1486  1487    1  180.0000000000    15.1670000000      2
     1485  1484  1486  1516    1  180.0000000000    15.1670000000      2
     1454  1459  1460  1461    1  180.0000000000    15.1670000000      2
     1454  1459  1460  1482    1  180.0000000000    15.1670000000      2
     1480  1459  1460  1461    1  180.0000000000    15.1670000000      2
     1480  1459  1460  1482    1  180.0000000000    15.1670000000      2
     1454  1459  1480  1479    1  180.0000000000    15.1670000000      2
     1454  1459  1480  1481    1  180.0000000000    15.1670000000      2
     1460  1459  1480  1479    1  180.0000000000    15.1670000000      2
     1460  1459  1480  1481    1  180.0000000000    15.1670000000      2
     1484  1486  1487  1488    1  0.0000000000      0.0000000000       1
     1484  1486  1487  1489    1  180.0000000000    1.0041600000       2
     1484  1486  1487  1511    1  180.0000000000    1.0041600000       2
     1516  1486  1487  1488    1  0.0000000000      0.0000000000       1
     1516  1486  1487  1489    1  180.0000000000    1.0041600000       2
     1516  1486  1487  1511    1  180.0000000000    1.0041600000       2
     1484  1486  1516  1489    1  180.0000000000    15.1670000000      2
     1484  1486  1516  1517    1  180.0000000000    15.1670000000      2
     1487  1486  1516  1489    1  180.0000000000    15.1670000000      2
     1487  1486  1516  1517    1  180.0000000000    15.1670000000      2
     1460  1482  1483  1454    1  180.0000000000    15.1670000000      2
     1460  1482  1483  1484    1  180.0000000000    15.1670000000      2
     1517  1482  1483  1454    1  180.0000000000    15.1670000000      2
     1517  1482  1483  1484    1  180.0000000000    15.1670000000      2
     1460  1482  1517  1516    1  180.0000000000    15.1670000000      2
     1460  1482  1517  1518    1  180.0000000000    15.1670000000      2
     1483  1482  1517  1516    1  180.0000000000    15.1670000000      2
     1483  1482  1517  1518    1  180.0000000000    15.1670000000      2
     4798  4799  4801  4802    1  0.0000000000      0.6508444444       3
     4798  4799  4801  4803    1  0.0000000000      0.6508444444       3
     4798  4799  4801  4828    1  0.0000000000      0.6508444444       3
     4800  4799  4801  4802    1  0.0000000000      0.6508444444       3
     4800  4799  4801  4803    1  0.0000000000      0.6508444444       3
     4800  4799  4801  4828    1  0.0000000000      0.6508444444       3
     4823  4799  4801  4802    1  0.0000000000      0.6508444444       3
     4823  4799  4801  4803    1  0.0000000000      0.6508444444       3
     4823  4799  4801  4828    1  0.0000000000      0.6508444444       3
     4798  4799  4823  4821    1  0.0000000000      0.6508444444       3
     4798  4799  4823  4824    1  0.0000000000      0.6508444444       3
     4798  4799  4823  4825    1  0.0000000000      0.6508444444       3
     4800  4799  4823  4821    1  0.0000000000      0.5439200000       3
     4800  4799  4823  4824    1  0.0000000000      0.5020800000       3
     4800  4799  4823  4825    1  0.0000000000      0.5439200000       3
     4801  4799  4823  4821    1  0.0000000000      2.1756800000       3
     4801  4799  4823  4824    1  0.0000000000      0.5439200000       3
     4801  4799  4823  4825    1  0.0000000000      2.1756800000       3
     1454  1483  1484  1485    1  180.0000000000    15.1670000000      2
     1454  1483  1484  1486    1  180.0000000000    15.1670000000      2
     1482  1483  1484  1485    1  180.0000000000    15.1670000000      2
     1482  1483  1484  1486    1  180.0000000000    15.1670000000      2
     4805  4821  4823  4799    1  0.0000000000      2.1756800000       3
     4805  4821  4823  4824    1  0.0000000000      0.5439200000       3
     4805  4821  4823  4825    1  0.0000000000      2.1756800000       3
     4808  4821  4823  4799    1  0.0000000000      0.6508444444       3
     4808  4821  4823  4824    1  0.0000000000      0.6508444444       3
     4808  4821  4823  4825    1  0.0000000000      0.6508444444       3
     4822  4821  4823  4799    1  0.0000000000      0.5439200000       3
     4822  4821  4823  4824    1  0.0000000000      0.5020800000       3
     4822  4821  4823  4825    1  0.0000000000      0.5439200000       3
     3989  3988  3987  3986    1  180.0000000000    15.1670000000      2
     3979  3988  3989  3990    1  0.0000000000      0.0000000000       2
     3979  3988  3989  3991    1  0.0000000000      0.0000000000       2
     3979  3988  3989  3992    1  0.0000000000      0.0000000000       2
     3987  3988  3979  3977    1  180.0000000000    15.1670000000      2
     3989  3988  3987  1817    1  180.0000000000    15.1670000000      2
     3979  3988  3987  1817    1  180.0000000000    15.1670000000      2
     1450  1454  1455  1456    1  0.0000000000      0.5439200000       3
     1450  1454  1455  1457    1  0.0000000000      0.5439200000       3
     1450  1454  1455  1458    1  0.0000000000      0.5439200000       3
     1459  1454  1455  1456    1  0.0000000000      0.6508444444       3
     1459  1454  1455  1457    1  0.0000000000      0.6508444444       3
     1459  1454  1455  1458    1  0.0000000000      0.6508444444       3
     1483  1454  1455  1456    1  0.0000000000      0.6508444444       3
     1483  1454  1455  1457    1  0.0000000000      0.6508444444       3
     1483  1454  1455  1458    1  0.0000000000      0.6508444444       3
     1450  1454  1459  1460    1  0.0000000000      0.0000000000       2
     1450  1454  1459  1480    1  180.0000000000    1.0041600000       2
     1455  1454  1459  1460    1  0.0000000000      0.0000000000       2
     1455  1454  1459  1480    1  180.0000000000    1.0041600000       2
     1483  1454  1459  1460    1  0.0000000000      0.0000000000       2
     1483  1454  1459  1480    1  180.0000000000    0.0000000000       2
     1450  1454  1483  1482    1  0.0000000000      0.0000000000       2
     1450  1454  1483  1484    1  180.0000000000    1.0041600000       2
     1455  1454  1483  1482    1  0.0000000000      0.0000000000       2
     1455  1454  1483  1484    1  180.0000000000    1.0041600000       2
     1459  1454  1483  1482    1  0.0000000000      0.0000000000       2
     1459  1454  1483  1484    1  180.0000000000    0.0000000000       2
     3986  3981  3980  3993    1  180.0000000000    15.1670000000      2
     3980  3981  3982  3983    1  0.0000000000      0.0000000000       2
     3980  3981  3982  3984    1  0.0000000000      0.0000000000       2
     3980  3981  3982  3985    1  0.0000000000      0.0000000000       2
     3980  3981  3986  3987    1  180.0000000000    15.1670000000      2
     3982  3981  3986  3987    1  180.0000000000    15.1670000000      2
     3980  3981  3986  1815    1  180.0000000000    15.1670000000      2
     3982  3981  3986  1815    1  180.0000000000    15.1670000000      2
     1486  1516  1517  1482    1  180.0000000000    15.1670000000      2
     1486  1516  1517  1518    1  180.0000000000    15.1670000000      2
     1489  1516  1517  1482    1  180.0000000000    15.1670000000      2
     1489  1516  1517  1518    1  180.0000000000    15.1670000000      2
     3975  3977  3979  3980    1  180.0000000000    1.0041600000       2
     3975  3977  3979  3988    1  180.0000000000    1.0041600000       2
     3978  3977  3979  3980    1  0.0000000000      0.0000000000       1
     3978  3977  3979  3988    1  0.0000000000      0.0000000000       1
     3993  3977  3979  3980    1  180.0000000000    1.0041600000       2
     3993  3977  3979  3988    1  180.0000000000    1.0041600000       2
     3975  3977  3993  3980    1  0.0000000000      0.6508444444       3
     3975  3977  3993  3994    1  0.0000000000      0.6508444444       3
     3975  3977  3993  3995    1  0.0000000000      0.6508444444       3
     3978  3977  3993  3980    1  0.0000000000      0.6508444444       3
     3978  3977  3993  3994    1  0.0000000000      0.6508444444       3
     3978  3977  3993  3995    1  0.0000000000      0.6508444444       3
     3979  3977  3993  3980    1  0.0000000000      0.6508444444       3
     3979  3977  3993  3994    1  0.0000000000      0.6508444444       3
     3979  3977  3993  3995    1  0.0000000000      0.6508444444       3
     1451  1450  1454  1455    1  0.0000000000      0.5439200000       3
     1451  1450  1454  1459    1  0.0000000000      0.6508444444       3
     1451  1450  1454  1483    1  0.0000000000      0.6508444444       3
     1452  1450  1454  1455    1  0.0000000000      0.5439200000       3
     1452  1450  1454  1459    1  0.0000000000      0.6508444444       3
     1452  1450  1454  1483    1  0.0000000000      0.6508444444       3
     1453  1450  1454  1455    1  0.0000000000      0.5439200000       3
     1453  1450  1454  1459    1  0.0000000000      0.6508444444       3
     1453  1450  1454  1483    1  0.0000000000      0.6508444444       3
     6612  6611  6610  6609    1  0.0000000000      0.0000000000       2
     6613  6611  6610  6609    1  0.0000000000      0.0000000000       2
     6614  6611  6610  6609    1  0.0000000000      0.0000000000       2
     1851  1850  1849  1848    1  0.0000000000      0.0000000000       2
     1852  1850  1849  1848    1  0.0000000000      0.0000000000       2
     1853  1850  1849  1848    1  0.0000000000      0.0000000000       2
     6611  6610  6609  6608    1  180.0000000000    15.1670000000      2
     6609  6610  6601  6599    1  180.0000000000    15.1670000000      2
     6601  6610  6611  6612    1  0.0000000000      0.0000000000       2
     6601  6610  6611  6613    1  0.0000000000      0.0000000000       2
     6601  6610  6611  6614    1  0.0000000000      0.0000000000       2
     6601  6610  6609  2300    1  180.0000000000    15.1670000000      2
     6611  6610  6609  2300    1  180.0000000000    15.1670000000      2
     1838  1840  1841  1842    1  180.0000000000    15.1670000000      2
     1838  1840  1841  1854    1  180.0000000000    15.1670000000      2
     1849  1840  1841  1842    1  180.0000000000    15.1670000000      2
     1849  1840  1841  1854    1  180.0000000000    15.1670000000      2
     1838  1840  1849  1850    1  180.0000000000    15.1670000000      2
     1841  1840  1849  1848    1  180.0000000000    15.1670000000      2
     1841  1840  1849  1850    1  180.0000000000    15.1670000000      2
     1850  1849  1848  1847    1  180.0000000000    15.1670000000      2
     1848  1849  1840  1838    1  180.0000000000    15.1670000000      2
     1840  1849  1850  1851    1  0.0000000000      0.0000000000       2
     1840  1849  1850  1852    1  0.0000000000      0.0000000000       2
     1840  1849  1850  1853    1  0.0000000000      0.0000000000       2
     1840  1849  1848  1610    1  180.0000000000    15.1670000000      2
     1850  1849  1848  1610    1  180.0000000000    15.1670000000      2
     1847  1848  1849  1840    1  180.0000000000    15.1670000000      2
     1849  1848  1847  1608    1  180.0000000000    15.1670000000      2
     1847  1848  1610  1608    1  180.0000000000    1.0041600000       2
     1849  1848  1610  1608    1  180.0000000000    1.0041600000       2
     1847  1848  1610  1611    1  0.0000000000      0.0000000000       1
     1849  1848  1610  1611    1  0.0000000000      0.0000000000       1
     1847  1848  1610  1612    1  180.0000000000    1.0041600000       2
     1849  1848  1610  1612    1  180.0000000000    1.0041600000       2
     1841  1842  1843  1844    1  0.0000000000      0.0000000000       2
     1841  1842  1843  1845    1  0.0000000000      0.0000000000       2
     1841  1842  1843  1846    1  0.0000000000      0.0000000000       2
     1841  1842  1847  1848    1  180.0000000000    15.1670000000      2
     1843  1842  1847  1848    1  180.0000000000    15.1670000000      2
     1847  1842  1841  1854    1  180.0000000000    15.1670000000      2
     1843  1842  1847  1608    1  180.0000000000    15.1670000000      2
     1841  1842  1847  1608    1  180.0000000000    15.1670000000      2
     6597  6599  6601  6602    1  180.0000000000    1.0041600000       2
     6597  6599  6601  6610    1  180.0000000000    1.0041600000       2
     6600  6599  6601  6602    1  0.0000000000      0.0000000000       1
     6600  6599  6601  6610    1  0.0000000000      0.0000000000       1
     6615  6599  6601  6602    1  180.0000000000    1.0041600000       2
     6615  6599  6601  6610    1  180.0000000000    1.0041600000       2
     6597  6599  6615  6602    1  0.0000000000      0.6508444444       3
     6597  6599  6615  6616    1  0.0000000000      0.6508444444       3
     6597  6599  6615  6617    1  0.0000000000      0.6508444444       3
     6600  6599  6615  6602    1  0.0000000000      0.6508444444       3
     6600  6599  6615  6616    1  0.0000000000      0.6508444444       3
     6600  6599  6615  6617    1  0.0000000000      0.6508444444       3
     6601  6599  6615  6602    1  0.0000000000      0.6508444444       3
     6601  6599  6615  6616    1  0.0000000000      0.6508444444       3
     6601  6599  6615  6617    1  0.0000000000      0.6508444444       3
     5453  5452  5456  5457    1  0.0000000000      0.5439200000       3
     5453  5452  5456  5461    1  0.0000000000      0.6508444444       3
     5453  5452  5456  5485    1  0.0000000000      0.6508444444       3
     5454  5452  5456  5457    1  0.0000000000      0.5439200000       3
     5454  5452  5456  5461    1  0.0000000000      0.6508444444       3
     5454  5452  5456  5485    1  0.0000000000      0.6508444444       3
     5455  5452  5456  5457    1  0.0000000000      0.5439200000       3
     5455  5452  5456  5461    1  0.0000000000      0.6508444444       3
     5455  5452  5456  5485    1  0.0000000000      0.6508444444       3
     6595  6597  6599  6600    1  0.0000000000      0.5439200000       3
     6595  6597  6599  6601    1  0.0000000000      0.6508444444       3
     6595  6597  6599  6615    1  0.0000000000      2.1756800000       3
     6598  6597  6599  6600    1  0.0000000000      0.5020800000       3
     6598  6597  6599  6601    1  0.0000000000      0.6508444444       3
     6598  6597  6599  6615    1  0.0000000000      0.5439200000       3
     6619  6597  6599  6600    1  0.0000000000      0.5439200000       3
     6619  6597  6599  6601    1  0.0000000000      0.6508444444       3
     6619  6597  6599  6615    1  0.0000000000      2.1756800000       3
     6595  6597  6619  6617    1  0.0000000000      0.6508444444       3
     6595  6597  6619  6620    1  0.0000000000      0.6508444444       3
     6595  6597  6619  6621    1  0.0000000000      0.6508444444       3
     6598  6597  6619  6617    1  0.0000000000      0.5439200000       3
     6598  6597  6619  6620    1  0.0000000000      0.5020800000       3
     6598  6597  6619  6621    1  0.0000000000      0.5020800000       3
     6599  6597  6619  6617    1  0.0000000000      0.6508444444       3
     6599  6597  6619  6620    1  0.0000000000      0.6508444444       3
     6599  6597  6619  6621    1  0.0000000000      0.6508444444       3
     6599  6601  6602  6603    1  180.0000000000    15.1670000000      2
     6599  6601  6602  6615    1  180.0000000000    15.1670000000      2
     6610  6601  6602  6603    1  180.0000000000    15.1670000000      2
     6610  6601  6602  6615    1  180.0000000000    15.1670000000      2
     6599  6601  6610  6611    1  180.0000000000    15.1670000000      2
     6602  6601  6610  6609    1  180.0000000000    15.1670000000      2
     6602  6601  6610  6611    1  180.0000000000    15.1670000000      2
     6608  6609  6610  6601    1  180.0000000000    15.1670000000      2
     2300  6609  6608  2298    1  180.0000000000    15.1670000000      2
     6610  6609  2300  2301    1  0.0000000000      0.0000000000       1
     6608  6609  2300  2301    1  0.0000000000      0.0000000000       1
     6610  6609  2300  2302    1  180.0000000000    1.0041600000       2
     6608  6609  2300  2302    1  180.0000000000    1.0041600000       2
     6610  6609  2300  2298    1  180.0000000000    1.0041600000       2
     6608  6609  2300  2298    1  180.0000000000    1.0041600000       2
     6610  6609  6608  2298    1  180.0000000000    15.1670000000      2
     5501  5500  5499  5504    1  0.0000000000      0.0000000000       2
     5502  5500  5499  5504    1  0.0000000000      0.0000000000       2
     5503  5500  5499  5504    1  0.0000000000      0.0000000000       2
     1842  1847  1848  1849    1  180.0000000000    15.1670000000      2
     1608  1847  1848  1610    1  180.0000000000    15.1670000000      2
     1842  1847  1608  1606    1  180.0000000000    1.0041600000       2
     1848  1847  1608  1606    1  180.0000000000    1.0041600000       2
     1842  1847  1608  1609    1  0.0000000000      0.0000000000       1
     1848  1847  1608  1609    1  0.0000000000      0.0000000000       1
     1842  1847  1608  1610    1  180.0000000000    1.0041600000       2
     1848  1847  1608  1610    1  180.0000000000    1.0041600000       2
     1842  1847  1848  1610    1  180.0000000000    15.1670000000      2
     6565  6566  6567  6568    1  180.0000000000    15.1670000000      2
     6565  6566  6567  6569    1  180.0000000000    15.1670000000      2
     6588  6566  6567  6568    1  180.0000000000    15.1670000000      2
     6588  6566  6567  6569    1  180.0000000000    15.1670000000      2
     6565  6566  6588  6589    1  180.0000000000    4.1840000000       2
     6565  6566  6588  6623    1  180.0000000000    4.1840000000       2
     6567  6566  6588  6589    1  180.0000000000    4.1840000000       2
     6567  6566  6588  6623    1  180.0000000000    4.1840000000       2
     6599  6615  6617  6593    1  0.0000000000      2.1756800000       3
     6599  6615  6617  6618    1  0.0000000000      0.5439200000       3
     6599  6615  6617  6619    1  0.0000000000      2.1756800000       3
     6602  6615  6617  6593    1  0.0000000000      0.6508444444       3
     6602  6615  6617  6618    1  0.0000000000      0.6508444444       3
     6602  6615  6617  6619    1  0.0000000000      0.6508444444       3
     6616  6615  6617  6593    1  0.0000000000      0.5439200000       3
     6616  6615  6617  6618    1  0.0000000000      0.5020800000       3
     6616  6615  6617  6619    1  0.0000000000      0.5439200000       3
     6566  6588  6589  6560    1  180.0000000000    15.1670000000      2
     6566  6588  6589  6590    1  180.0000000000    15.1670000000      2
     6623  6588  6589  6560    1  180.0000000000    15.1670000000      2
     6623  6588  6589  6590    1  180.0000000000    15.1670000000      2
     6566  6588  6623  6622    1  180.0000000000    15.1670000000      2
     6566  6588  6623  6624    1  180.0000000000    15.1670000000      2
     6589  6588  6623  6622    1  180.0000000000    15.1670000000      2
     6589  6588  6623  6624    1  180.0000000000    15.1670000000      2
     1840  1841  1842  1843    1  180.0000000000    15.1670000000      2
     1840  1841  1842  1847    1  180.0000000000    15.1670000000      2
     1854  1841  1842  1843    1  180.0000000000    15.1670000000      2
     1840  1841  1854  1838    1  180.0000000000    1.0041600000       2
     1840  1841  1854  1855    1  0.0000000000      0.0000000000       1
     1840  1841  1854  1856    1  180.0000000000    1.0041600000       2
     1842  1841  1854  1838    1  180.0000000000    1.0041600000       2
     1842  1841  1854  1855    1  0.0000000000      0.0000000000       1
     1842  1841  1854  1856    1  180.0000000000    1.0041600000       2
     6566  6567  6569  6570    1  180.0000000000    15.1670000000      2
     6566  6567  6569  6585    1  180.0000000000    15.1670000000      2
     6568  6567  6569  6570    1  180.0000000000    15.1670000000      2
     6568  6567  6569  6585    1  180.0000000000    15.1670000000      2
     6592  6622  6623  6588    1  180.0000000000    15.1670000000      2
     6592  6622  6623  6624    1  180.0000000000    15.1670000000      2
     6595  6622  6623  6588    1  180.0000000000    15.1670000000      2
     6595  6622  6623  6624    1  180.0000000000    15.1670000000      2
     6593  6595  6597  6598    1  0.0000000000      0.5439200000       3
     6593  6595  6597  6599    1  0.0000000000      2.1756800000       3
     6593  6595  6597  6619    1  0.0000000000      2.1756800000       3
     6596  6595  6597  6598    1  0.0000000000      0.5020800000       3
     6596  6595  6597  6599    1  0.0000000000      0.5439200000       3
     6596  6595  6597  6619    1  0.0000000000      0.5439200000       3
     6622  6595  6597  6598    1  0.0000000000      0.6508444444       3
     6622  6595  6597  6599    1  0.0000000000      0.6508444444       3
     6622  6595  6597  6619    1  0.0000000000      0.6508444444       3
     6593  6595  6622  6592    1  180.0000000000    1.0041600000       2
     6593  6595  6622  6623    1  180.0000000000    1.0041600000       2
     6596  6595  6622  6592    1  0.0000000000      0.0000000000       1
     6596  6595  6622  6623    1  0.0000000000      0.0000000000       1
     6597  6595  6622  6592    1  180.0000000000    1.0041600000       2
     6597  6595  6622  6623    1  180.0000000000    1.0041600000       2
     6593  6617  6619  6597    1  0.0000000000      0.6508444444       3
     6593  6617  6619  6620    1  0.0000000000      0.6508444444       3
     6593  6617  6619  6621    1  0.0000000000      0.6508444444       3
     6615  6617  6619  6597    1  0.0000000000      0.6508444444       3
     6615  6617  6619  6620    1  0.0000000000      0.6508444444       3
     6615  6617  6619  6621    1  0.0000000000      0.6508444444       3
     6618  6617  6619  6597    1  0.0000000000      0.5439200000       3
     6618  6617  6619  6620    1  0.0000000000      0.5020800000       3
     6618  6617  6619  6621    1  0.0000000000      0.5020800000       3
     6601  6602  6603  6604    1  180.0000000000    15.1670000000      2
     6601  6602  6603  6608    1  180.0000000000    15.1670000000      2
     6615  6602  6603  6604    1  180.0000000000    15.1670000000      2
     6601  6602  6615  6599    1  180.0000000000    1.0041600000       2
     6601  6602  6615  6616    1  0.0000000000      0.0000000000       1
     6601  6602  6615  6617    1  180.0000000000    1.0041600000       2
     6603  6602  6615  6599    1  180.0000000000    1.0041600000       2
     6603  6602  6615  6616    1  0.0000000000      0.0000000000       1
     6603  6602  6615  6617    1  180.0000000000    1.0041600000       2
     2302  2300  2298  2299    1  0.0000000000      0.6508444444       3
     6609  2300  2298  2299    1  0.0000000000      0.6508444444       3
     6609  2300  2298  6608    1  0.0000000000      0.6508444444       3
     2302  2300  2298  6608    1  0.0000000000      0.6508444444       3
     5489  5513  5515  5493    1  0.0000000000      0.6508444444       3
     5489  5513  5515  5516    1  0.0000000000      0.6508444444       3
     5489  5513  5515  5517    1  0.0000000000      0.6508444444       3
     5511  5513  5515  5493    1  0.0000000000      0.6508444444       3
     5511  5513  5515  5516    1  0.0000000000      0.6508444444       3
     5511  5513  5515  5517    1  0.0000000000      0.6508444444       3
     5514  5513  5515  5493    1  0.0000000000      0.5439200000       3
     5514  5513  5515  5516    1  0.0000000000      0.5020800000       3
     5514  5513  5515  5517    1  0.0000000000      0.5020800000       3
     2292  2302  2300  2298    1  0.0000000000      2.1756800000       3
     2303  2302  2300  2298    1  0.0000000000      0.5439200000       3
     2304  2302  2300  2298    1  0.0000000000      2.1756800000       3
     2292  2302  2300  2301    1  0.0000000000      0.5439200000       3
     2303  2302  2300  2301    1  0.0000000000      0.5020800000       3
     2304  2302  2300  2301    1  0.0000000000      0.5439200000       3
     2300  2302  2292  2291    1  0.0000000000      0.6508444444       3
     2300  2302  2292  2293    1  0.0000000000      0.5439200000       3
     2300  2302  2292  2294    1  0.0000000000      2.1756800000       3
     2292  2302  2304  2296    1  0.0000000000      0.6508444444       3
     2292  2302  2304  2305    1  0.0000000000      0.6508444444       3
     2292  2302  2304  2306    1  0.0000000000      0.6508444444       3
     2300  2302  2304  2305    1  0.0000000000      0.6508444444       3
     2300  2302  2304  2306    1  0.0000000000      0.6508444444       3
     2303  2302  2304  2296    1  0.0000000000      0.5439200000       3
     2303  2302  2304  2305    1  0.0000000000      0.5020800000       3
     2303  2302  2304  2306    1  0.0000000000      0.5020800000       3
     2292  2302  2300  6609    1  0.0000000000      0.6508444444       3
     2303  2302  2300  6609    1  0.0000000000      0.6508444444       3
     2304  2302  2300  6609    1  0.0000000000      0.6508444444       3
     5504  5499  5498  5511    1  180.0000000000    15.1670000000      2
     5498  5499  5500  5501    1  0.0000000000      0.0000000000       2
     5498  5499  5500  5502    1  0.0000000000      0.0000000000       2
     5498  5499  5500  5503    1  0.0000000000      0.0000000000       2
     5498  5499  5504  5505    1  180.0000000000    15.1670000000      2
     5500  5499  5504  5505    1  180.0000000000    15.1670000000      2
     5498  5499  5504  6026    1  180.0000000000    15.1670000000      2
     5500  5499  5504  6026    1  180.0000000000    15.1670000000      2
     1612  1614  1606  1608    1  0.0000000000      0.6508444444       3
     1606  1614  1612  1610    1  0.0000000000      0.6508444444       3
     5485  5486  5488  5489    1  180.0000000000    15.1670000000      2
     5485  5486  5488  5518    1  180.0000000000    15.1670000000      2
     5487  5486  5488  5489    1  180.0000000000    15.1670000000      2
     5487  5486  5488  5518    1  180.0000000000    15.1670000000      2
     1844  1843  1842  1847    1  0.0000000000      0.0000000000       2
     1845  1843  1842  1847    1  0.0000000000      0.0000000000       2
     1846  1843  1842  1847    1  0.0000000000      0.0000000000       2
     1610  1612  1602  1601    1  0.0000000000      0.6508444444       3
     1610  1612  1602  1603    1  0.0000000000      0.5439200000       3
     1610  1612  1602  1604    1  0.0000000000      2.1756800000       3
     1602  1612  1610  1608    1  0.0000000000      2.1756800000       3
     1613  1612  1610  1608    1  0.0000000000      0.5439200000       3
     1614  1612  1610  1608    1  0.0000000000      2.1756800000       3
     1602  1612  1610  1611    1  0.0000000000      0.5439200000       3
     1613  1612  1610  1611    1  0.0000000000      0.5020800000       3
     1614  1612  1610  1611    1  0.0000000000      0.5439200000       3
     1602  1612  1614  1606    1  0.0000000000      0.6508444444       3
     1602  1612  1614  1615    1  0.0000000000      0.6508444444       3
     1602  1612  1614  1616    1  0.0000000000      0.6508444444       3
     1610  1612  1614  1615    1  0.0000000000      0.6508444444       3
     1610  1612  1614  1616    1  0.0000000000      0.6508444444       3
     1613  1612  1614  1606    1  0.0000000000      0.5439200000       3
     1613  1612  1614  1615    1  0.0000000000      0.5020800000       3
     1613  1612  1614  1616    1  0.0000000000      0.5020800000       3
     1602  1612  1610  1848    1  0.0000000000      0.6508444444       3
     1613  1612  1610  1848    1  0.0000000000      0.6508444444       3
     1614  1612  1610  1848    1  0.0000000000      0.6508444444       3
     1612  1610  1608  1609    1  0.0000000000      0.6508444444       3
     1612  1610  1608  1847    1  0.0000000000      0.6508444444       3
     1848  1610  1608  1609    1  0.0000000000      0.6508444444       3
     6556  6560  6561  6562    1  0.0000000000      0.5439200000       3
     6556  6560  6561  6563    1  0.0000000000      0.5439200000       3
     6556  6560  6561  6564    1  0.0000000000      0.5439200000       3
     6565  6560  6561  6562    1  0.0000000000      0.6508444444       3
     6565  6560  6561  6563    1  0.0000000000      0.6508444444       3
     6565  6560  6561  6564    1  0.0000000000      0.6508444444       3
     6589  6560  6561  6562    1  0.0000000000      0.6508444444       3
     6589  6560  6561  6563    1  0.0000000000      0.6508444444       3
     6589  6560  6561  6564    1  0.0000000000      0.6508444444       3
     6556  6560  6565  6566    1  0.0000000000      0.0000000000       2
     6556  6560  6565  6586    1  180.0000000000    1.0041600000       2
     6561  6560  6565  6566    1  0.0000000000      0.0000000000       2
     6561  6560  6565  6586    1  180.0000000000    1.0041600000       2
     6589  6560  6565  6566    1  0.0000000000      0.0000000000       2
     6589  6560  6565  6586    1  180.0000000000    0.0000000000       2
     6556  6560  6589  6588    1  0.0000000000      0.0000000000       2
     6556  6560  6589  6590    1  180.0000000000    1.0041600000       2
     6561  6560  6589  6588    1  0.0000000000      0.0000000000       2
     6561  6560  6589  6590    1  180.0000000000    1.0041600000       2
     6565  6560  6589  6588    1  0.0000000000      0.0000000000       2
     6565  6560  6589  6590    1  180.0000000000    0.0000000000       2
     6560  6589  6590  6591    1  180.0000000000    15.1670000000      2
     6560  6589  6590  6592    1  180.0000000000    15.1670000000      2
     6588  6589  6590  6591    1  180.0000000000    15.1670000000      2
     6588  6589  6590  6592    1  180.0000000000    15.1670000000      2
     5495  5511  5513  5489    1  0.0000000000      2.1756800000       3
     5495  5511  5513  5514    1  0.0000000000      0.5439200000       3
     5495  5511  5513  5515    1  0.0000000000      2.1756800000       3
     5498  5511  5513  5489    1  0.0000000000      0.6508444444       3
     5498  5511  5513  5514    1  0.0000000000      0.6508444444       3
     5498  5511  5513  5515    1  0.0000000000      0.6508444444       3
     5512  5511  5513  5489    1  0.0000000000      0.5439200000       3
     5512  5511  5513  5514    1  0.0000000000      0.5020800000       3
     5512  5511  5513  5515    1  0.0000000000      0.5439200000       3
     1606  1608  1610  1611    1  0.0000000000      0.6508444444       3
     1606  1608  1610  1612    1  0.0000000000      0.6508444444       3
     1609  1608  1610  1611    1  0.0000000000      0.6508444444       3
     1847  1608  1610  1611    1  0.0000000000      0.6508444444       3
     1847  1608  1610  1848    1  0.0000000000      0.6508444444       3
     1606  1608  1610  1848    1  0.0000000000      0.6508444444       3
     1608  1606  1604  1602    1  0.0000000000      2.1756800000       3
     1608  1606  1604  1605    1  0.0000000000      0.5439200000       3
     1608  1606  1604  1617    1  0.0000000000      0.6508444444       3
     1604  1606  1608  1609    1  0.0000000000      0.5439200000       3
     1604  1606  1608  1610    1  0.0000000000      2.1756800000       3
     1607  1606  1608  1609    1  0.0000000000      0.5020800000       3
     1607  1606  1608  1610    1  0.0000000000      0.5439200000       3
     1614  1606  1608  1609    1  0.0000000000      0.5439200000       3
     1614  1606  1608  1610    1  0.0000000000      2.1756800000       3
     1604  1606  1614  1612    1  0.0000000000      0.6508444444       3
     1604  1606  1614  1615    1  0.0000000000      0.6508444444       3
     1604  1606  1614  1616    1  0.0000000000      0.6508444444       3
     1607  1606  1614  1612    1  0.0000000000      0.5439200000       3
     1607  1606  1614  1615    1  0.0000000000      0.5020800000       3
     1607  1606  1614  1616    1  0.0000000000      0.5020800000       3
     1608  1606  1614  1615    1  0.0000000000      0.6508444444       3
     1608  1606  1614  1616    1  0.0000000000      0.6508444444       3
     1604  1606  1608  1847    1  0.0000000000      0.6508444444       3
     1607  1606  1608  1847    1  0.0000000000      0.6508444444       3
     1614  1606  1608  1847    1  0.0000000000      0.6508444444       3
     6018  6028  6026  6024    1  0.0000000000      2.1756800000       3
     6029  6028  6026  6024    1  0.0000000000      0.5439200000       3
     6030  6028  6026  6024    1  0.0000000000      2.1756800000       3
     6018  6028  6026  6027    1  0.0000000000      0.5439200000       3
     6029  6028  6026  6027    1  0.0000000000      0.5020800000       3
     6030  6028  6026  6027    1  0.0000000000      0.5439200000       3
     6026  6028  6018  6017    1  0.0000000000      0.6508444444       3
     6026  6028  6018  6019    1  0.0000000000      0.5439200000       3
     6026  6028  6018  6020    1  0.0000000000      2.1756800000       3
     6018  6028  6030  6022    1  0.0000000000      0.6508444444       3
     6018  6028  6030  6031    1  0.0000000000      0.6508444444       3
     6018  6028  6030  6032    1  0.0000000000      0.6508444444       3
     6026  6028  6030  6031    1  0.0000000000      0.6508444444       3
     6026  6028  6030  6032    1  0.0000000000      0.6508444444       3
     6029  6028  6030  6022    1  0.0000000000      0.5439200000       3
     6029  6028  6030  6031    1  0.0000000000      0.5020800000       3
     6029  6028  6030  6032    1  0.0000000000      0.5020800000       3
     6018  6028  6026  5504    1  0.0000000000      0.6508444444       3
     6029  6028  6026  5504    1  0.0000000000      0.6508444444       3
     6030  6028  6026  5504    1  0.0000000000      0.6508444444       3
     6590  6592  6593  6594    1  0.0000000000      0.0000000000       1
     6590  6592  6593  6595    1  180.0000000000    1.0041600000       2
     6590  6592  6593  6617    1  180.0000000000    1.0041600000       2
     6622  6592  6593  6594    1  0.0000000000      0.0000000000       1
     6622  6592  6593  6595    1  180.0000000000    1.0041600000       2
     6622  6592  6593  6617    1  180.0000000000    1.0041600000       2
     6590  6592  6622  6595    1  180.0000000000    15.1670000000      2
     6590  6592  6622  6623    1  180.0000000000    15.1670000000      2
     6593  6592  6622  6595    1  180.0000000000    15.1670000000      2
     6593  6592  6622  6623    1  180.0000000000    15.1670000000      2
     1795  1799  1800  1801    1  0.0000000000      0.5439200000       3
     1795  1799  1800  1802    1  0.0000000000      0.5439200000       3
     1795  1799  1800  1803    1  0.0000000000      0.5439200000       3
     1804  1799  1800  1801    1  0.0000000000      0.6508444444       3
     1804  1799  1800  1802    1  0.0000000000      0.6508444444       3
     1804  1799  1800  1803    1  0.0000000000      0.6508444444       3
     1828  1799  1800  1801    1  0.0000000000      0.6508444444       3
     1828  1799  1800  1802    1  0.0000000000      0.6508444444       3
     1828  1799  1800  1803    1  0.0000000000      0.6508444444       3
     1795  1799  1804  1805    1  0.0000000000      0.0000000000       2
     1795  1799  1804  1825    1  180.0000000000    1.0041600000       2
     1800  1799  1804  1805    1  0.0000000000      0.0000000000       2
     1800  1799  1804  1825    1  180.0000000000    1.0041600000       2
     1828  1799  1804  1805    1  0.0000000000      0.0000000000       2
     1828  1799  1804  1825    1  180.0000000000    0.0000000000       2
     1795  1799  1828  1827    1  0.0000000000      0.0000000000       2
     1795  1799  1828  1829    1  180.0000000000    1.0041600000       2
     1800  1799  1828  1827    1  0.0000000000      0.0000000000       2
     1800  1799  1828  1829    1  180.0000000000    1.0041600000       2
     1804  1799  1828  1827    1  0.0000000000      0.0000000000       2
     1804  1799  1828  1829    1  180.0000000000    0.0000000000       2
     4924  4922  4920  4921    1  0.0000000000      0.6508444444       3
     1641  4922  4920  4921    1  0.0000000000      0.6508444444       3
     1641  4922  4920  1640    1  0.0000000000      0.6508444444       3
     4924  4922  4920  1640    1  0.0000000000      0.6508444444       3
     1813  1815  1817  1818    1  0.0000000000      0.6508444444       3
     1813  1815  1817  1819    1  0.0000000000      0.6508444444       3
     1816  1815  1817  1818    1  0.0000000000      0.6508444444       3
     3986  1815  1817  1818    1  0.0000000000      0.6508444444       3
     3986  1815  1817  3987    1  0.0000000000      0.6508444444       3
     1813  1815  1817  3987    1  0.0000000000      0.6508444444       3
     1799  1804  1805  1806    1  180.0000000000    15.1670000000      2
     1799  1804  1805  1827    1  180.0000000000    15.1670000000      2
     1825  1804  1805  1806    1  180.0000000000    15.1670000000      2
     1825  1804  1805  1827    1  180.0000000000    15.1670000000      2
     1799  1804  1825  1824    1  180.0000000000    15.1670000000      2
     1799  1804  1825  1826    1  180.0000000000    15.1670000000      2
     1805  1804  1825  1824    1  180.0000000000    15.1670000000      2
     1805  1804  1825  1826    1  180.0000000000    15.1670000000      2
     3981  3986  3987  3988    1  180.0000000000    15.1670000000      2
     1815  3986  3987  1817    1  180.0000000000    15.1670000000      2
     3981  3986  1815  1816    1  0.0000000000      0.0000000000       1
     3987  3986  1815  1816    1  0.0000000000      0.0000000000       1
     3981  3986  1815  1817    1  180.0000000000    1.0041600000       2
     3987  3986  1815  1817    1  180.0000000000    1.0041600000       2
     3981  3986  1815  1813    1  180.0000000000    1.0041600000       2
     3987  3986  1815  1813    1  180.0000000000    1.0041600000       2
     3981  3986  3987  1817    1  180.0000000000    15.1670000000      2
     1598  1599  1601  1602    1  180.0000000000    15.1670000000      2
     1598  1599  1601  1617    1  180.0000000000    15.1670000000      2
     1600  1599  1601  1602    1  180.0000000000    15.1670000000      2
     1600  1599  1601  1617    1  180.0000000000    15.1670000000      2
     1796  1795  1799  1800    1  0.0000000000      0.5439200000       3
     1796  1795  1799  1804    1  0.0000000000      0.6508444444       3
     1796  1795  1799  1828    1  0.0000000000      0.6508444444       3
     1797  1795  1799  1800    1  0.0000000000      0.5439200000       3
     1797  1795  1799  1804    1  0.0000000000      0.6508444444       3
     1797  1795  1799  1828    1  0.0000000000      0.6508444444       3
     1798  1795  1799  1800    1  0.0000000000      0.5439200000       3
     1798  1795  1799  1804    1  0.0000000000      0.6508444444       3
     1798  1795  1799  1828    1  0.0000000000      0.6508444444       3
     1597  1598  1599  1600    1  180.0000000000    15.1670000000      2
     1597  1598  1599  1601    1  180.0000000000    15.1670000000      2
     1620  1598  1599  1600    1  180.0000000000    15.1670000000      2
     1620  1598  1599  1601    1  180.0000000000    15.1670000000      2
     1597  1598  1620  1621    1  180.0000000000    4.1840000000       2
     1597  1598  1620  1655    1  180.0000000000    4.1840000000       2
     1599  1598  1620  1621    1  180.0000000000    4.1840000000       2
     1599  1598  1620  1655    1  180.0000000000    4.1840000000       2
     1640  1641  1642  1633    1  180.0000000000    15.1670000000      2
     4922  1641  1640  4920    1  180.0000000000    15.1670000000      2
     1640  1641  4922  4920    1  180.0000000000    1.0041600000       2
     1642  1641  4922  4920    1  180.0000000000    1.0041600000       2
     1640  1641  4922  4923    1  0.0000000000      0.0000000000       1
     1642  1641  4922  4923    1  0.0000000000      0.0000000000       1
     1640  1641  4922  4924    1  180.0000000000    1.0041600000       2
     1642  1641  4922  4924    1  180.0000000000    1.0041600000       2
     1642  1641  1640  4920    1  180.0000000000    15.1670000000      2
     1809  1819  1817  1815    1  0.0000000000      2.1756800000       3
     1820  1819  1817  1815    1  0.0000000000      0.5439200000       3
     1821  1819  1817  1815    1  0.0000000000      2.1756800000       3
     1809  1819  1817  1818    1  0.0000000000      0.5439200000       3
     1820  1819  1817  1818    1  0.0000000000      0.5020800000       3
     1821  1819  1817  1818    1  0.0000000000      0.5439200000       3
     1809  1819  1821  1813    1  0.0000000000      0.6508444444       3
     1809  1819  1821  1822    1  0.0000000000      0.6508444444       3
     1809  1819  1821  1823    1  0.0000000000      0.6508444444       3
     1817  1819  1821  1822    1  0.0000000000      0.6508444444       3
     1817  1819  1821  1823    1  0.0000000000      0.6508444444       3
     1820  1819  1821  1813    1  0.0000000000      0.5439200000       3
     1820  1819  1821  1822    1  0.0000000000      0.5020800000       3
     1820  1819  1821  1823    1  0.0000000000      0.5020800000       3
     1817  1819  1809  1808    1  0.0000000000      0.6508444444       3
     1817  1819  1809  1810    1  0.0000000000      0.5439200000       3
     1817  1819  1809  1811    1  0.0000000000      2.1756800000       3
     1820  1819  1817  3987    1  0.0000000000      0.6508444444       3
     1821  1819  1817  3987    1  0.0000000000      0.6508444444       3
     1809  1819  1817  3987    1  0.0000000000      0.6508444444       3
     1806  1808  1809  1810    1  0.0000000000      0.0000000000       1
     1806  1808  1809  1811    1  180.0000000000    1.0041600000       2
     1806  1808  1809  1819    1  180.0000000000    1.0041600000       2
     1824  1808  1809  1810    1  0.0000000000      0.0000000000       1
     1824  1808  1809  1811    1  180.0000000000    1.0041600000       2
     1824  1808  1809  1819    1  180.0000000000    1.0041600000       2
     1806  1808  1824  1811    1  180.0000000000    15.1670000000      2
     1806  1808  1824  1825    1  180.0000000000    15.1670000000      2
     1809  1808  1824  1811    1  180.0000000000    15.1670000000      2
     1809  1808  1824  1825    1  180.0000000000    15.1670000000      2
     1805  1827  1828  1799    1  180.0000000000    15.1670000000      2
     1805  1827  1828  1829    1  180.0000000000    15.1670000000      2
     1862  1827  1828  1799    1  180.0000000000    15.1670000000      2
     1862  1827  1828  1829    1  180.0000000000    15.1670000000      2
     1805  1827  1862  1861    1  180.0000000000    15.1670000000      2
     1805  1827  1862  1863    1  180.0000000000    15.1670000000      2
     1828  1827  1862  1861    1  180.0000000000    15.1670000000      2
     1828  1827  1862  1863    1  180.0000000000    15.1670000000      2
     1804  1805  1806  1807    1  180.0000000000    15.1670000000      2
     1804  1805  1806  1808    1  180.0000000000    15.1670000000      2
     1827  1805  1806  1807    1  180.0000000000    15.1670000000      2
     1827  1805  1806  1808    1  180.0000000000    15.1670000000      2
     1804  1805  1827  1828    1  180.0000000000    4.1840000000       2
     1804  1805  1827  1862    1  180.0000000000    4.1840000000       2
     1806  1805  1827  1828    1  180.0000000000    4.1840000000       2
     1806  1805  1827  1862    1  180.0000000000    4.1840000000       2
     1641  1642  1633  1631    1  180.0000000000    15.1670000000      2
     1643  1642  1641  1640    1  180.0000000000    15.1670000000      2
     1633  1642  1643  1644    1  0.0000000000      0.0000000000       2
     1633  1642  1643  1645    1  0.0000000000      0.0000000000       2
     1633  1642  1643  1646    1  0.0000000000      0.0000000000       2
     1633  1642  1641  4922    1  180.0000000000    15.1670000000      2
     1643  1642  1641  4922    1  180.0000000000    15.1670000000      2
     1601  1602  1604  1605    1  0.0000000000      0.6508444444       3
     1601  1602  1604  1606    1  0.0000000000      0.6508444444       3
     1601  1602  1604  1617    1  0.0000000000      0.6508444444       3
     1603  1602  1604  1605    1  0.0000000000      0.6508444444       3
     1603  1602  1604  1606    1  0.0000000000      0.6508444444       3
     1603  1602  1604  1617    1  0.0000000000      0.6508444444       3
     1612  1602  1604  1605    1  0.0000000000      0.6508444444       3
     1612  1602  1604  1606    1  0.0000000000      0.6508444444       3
     1612  1602  1604  1617    1  0.0000000000      0.6508444444       3
     1601  1602  1612  1613    1  0.0000000000      0.6508444444       3
     1601  1602  1612  1614    1  0.0000000000      0.6508444444       3
     1603  1602  1612  1613    1  0.0000000000      0.5020800000       3
     1603  1602  1612  1614    1  0.0000000000      0.5439200000       3
     1604  1602  1612  1613    1  0.0000000000      0.5439200000       3
     1604  1602  1612  1614    1  0.0000000000      2.1756800000       3
     1592  1597  1598  1599    1  180.0000000000    15.1670000000      2
     1592  1597  1598  1620    1  180.0000000000    15.1670000000      2
     1618  1597  1598  1599    1  180.0000000000    15.1670000000      2
     1618  1597  1598  1620    1  180.0000000000    15.1670000000      2
     1592  1597  1618  1617    1  180.0000000000    15.1670000000      2
     1592  1597  1618  1619    1  180.0000000000    15.1670000000      2
     1598  1597  1618  1617    1  180.0000000000    15.1670000000      2
     1598  1597  1618  1619    1  180.0000000000    15.1670000000      2
     1589  1588  1592  1593    1  0.0000000000      0.5439200000       3
     1589  1588  1592  1597    1  0.0000000000      0.6508444444       3
     1589  1588  1592  1621    1  0.0000000000      0.6508444444       3
     1590  1588  1592  1593    1  0.0000000000      0.5439200000       3
     1590  1588  1592  1597    1  0.0000000000      0.6508444444       3
     1590  1588  1592  1621    1  0.0000000000      0.6508444444       3
     1591  1588  1592  1593    1  0.0000000000      0.5439200000       3
     1591  1588  1592  1597    1  0.0000000000      0.6508444444       3
     1591  1588  1592  1621    1  0.0000000000      0.6508444444       3
     1808  1824  1825  1804    1  180.0000000000    15.1670000000      2
     1808  1824  1825  1826    1  180.0000000000    15.1670000000      2
     1811  1824  1825  1804    1  180.0000000000    15.1670000000      2
     1811  1824  1825  1826    1  180.0000000000    15.1670000000      2
     1601  1617  1618  1597    1  180.0000000000    15.1670000000      2
     1601  1617  1618  1619    1  180.0000000000    15.1670000000      2
     1604  1617  1618  1597    1  180.0000000000    15.1670000000      2
     1604  1617  1618  1619    1  180.0000000000    15.1670000000      2
     5118  5120  5121  5122    1  0.0000000000      0.0000000000       1
     5118  5120  5121  5123    1  180.0000000000    1.0041600000       2
     5118  5120  5121  5131    1  180.0000000000    1.0041600000       2
     5136  5120  5121  5122    1  0.0000000000      0.0000000000       1
     5136  5120  5121  5123    1  180.0000000000    1.0041600000       2
     5136  5120  5121  5131    1  180.0000000000    1.0041600000       2
     5118  5120  5136  5123    1  180.0000000000    15.1670000000      2
     5118  5120  5136  5137    1  180.0000000000    15.1670000000      2
     5121  5120  5136  5123    1  180.0000000000    15.1670000000      2
     5121  5120  5136  5137    1  180.0000000000    15.1670000000      2
     1815  1813  1811  1809    1  0.0000000000      2.1756800000       3
     1815  1813  1811  1812    1  0.0000000000      0.5439200000       3
     1815  1813  1811  1824    1  0.0000000000      0.6508444444       3
     1811  1813  1815  1816    1  0.0000000000      0.5439200000       3
     1811  1813  1815  1817    1  0.0000000000      2.1756800000       3
     1814  1813  1815  1816    1  0.0000000000      0.5020800000       3
     1814  1813  1815  1817    1  0.0000000000      0.5439200000       3
     1821  1813  1815  1816    1  0.0000000000      0.5439200000       3
     1821  1813  1815  1817    1  0.0000000000      2.1756800000       3
     1811  1813  1821  1819    1  0.0000000000      0.6508444444       3
     1811  1813  1821  1822    1  0.0000000000      0.6508444444       3
     1811  1813  1821  1823    1  0.0000000000      0.6508444444       3
     1814  1813  1821  1819    1  0.0000000000      0.5439200000       3
     1814  1813  1821  1822    1  0.0000000000      0.5020800000       3
     1814  1813  1821  1823    1  0.0000000000      0.5020800000       3
     1815  1813  1821  1822    1  0.0000000000      0.6508444444       3
     1815  1813  1821  1823    1  0.0000000000      0.6508444444       3
     1811  1813  1815  3986    1  0.0000000000      0.6508444444       3
     1814  1813  1815  3986    1  0.0000000000      0.6508444444       3
     1821  1813  1815  3986    1  0.0000000000      0.6508444444       3
     5117  5118  5120  5121    1  180.0000000000    15.1670000000      2
     5117  5118  5120  5136    1  180.0000000000    15.1670000000      2
     5119  5118  5120  5121    1  180.0000000000    15.1670000000      2
     5119  5118  5120  5136    1  180.0000000000    15.1670000000      2
     1808  1809  1811  1812    1  0.0000000000      0.6508444444       3
     1808  1809  1811  1813    1  0.0000000000      0.6508444444       3
     1808  1809  1811  1824    1  0.0000000000      0.6508444444       3
     1810  1809  1811  1812    1  0.0000000000      0.6508444444       3
     1810  1809  1811  1813    1  0.0000000000      0.6508444444       3
     1810  1809  1811  1824    1  0.0000000000      0.6508444444       3
     1819  1809  1811  1812    1  0.0000000000      0.6508444444       3
     1819  1809  1811  1813    1  0.0000000000      0.6508444444       3
     1819  1809  1811  1824    1  0.0000000000      0.6508444444       3
     1808  1809  1819  1820    1  0.0000000000      0.6508444444       3
     1808  1809  1819  1821    1  0.0000000000      0.6508444444       3
     1810  1809  1819  1820    1  0.0000000000      0.5020800000       3
     1810  1809  1819  1821    1  0.0000000000      0.5439200000       3
     1811  1809  1819  1820    1  0.0000000000      0.5439200000       3
     1811  1809  1819  1821    1  0.0000000000      2.1756800000       3
     1598  1620  1621  1592    1  180.0000000000    15.1670000000      2
     1598  1620  1621  1622    1  180.0000000000    15.1670000000      2
     1655  1620  1621  1592    1  180.0000000000    15.1670000000      2
     1655  1620  1621  1622    1  180.0000000000    15.1670000000      2
     1598  1620  1655  1654    1  180.0000000000    15.1670000000      2
     1598  1620  1655  1656    1  180.0000000000    15.1670000000      2
     1621  1620  1655  1654    1  180.0000000000    15.1670000000      2
     1621  1620  1655  1656    1  180.0000000000    15.1670000000      2
     1588  1592  1593  1594    1  0.0000000000      0.5439200000       3
     1588  1592  1593  1595    1  0.0000000000      0.5439200000       3
     1588  1592  1593  1596    1  0.0000000000      0.5439200000       3
     1597  1592  1593  1594    1  0.0000000000      0.6508444444       3
     1597  1592  1593  1595    1  0.0000000000      0.6508444444       3
     1597  1592  1593  1596    1  0.0000000000      0.6508444444       3
     1621  1592  1593  1594    1  0.0000000000      0.6508444444       3
     1621  1592  1593  1595    1  0.0000000000      0.6508444444       3
     1621  1592  1593  1596    1  0.0000000000      0.6508444444       3
     1588  1592  1597  1598    1  0.0000000000      0.0000000000       2
     1588  1592  1597  1618    1  180.0000000000    1.0041600000       2
     1593  1592  1597  1598    1  0.0000000000      0.0000000000       2
     1593  1592  1597  1618    1  180.0000000000    1.0041600000       2
     1621  1592  1597  1598    1  0.0000000000      0.0000000000       2
     1621  1592  1597  1618    1  180.0000000000    0.0000000000       2
     1588  1592  1621  1620    1  0.0000000000      0.0000000000       2
     1588  1592  1621  1622    1  180.0000000000    1.0041600000       2
     1593  1592  1621  1620    1  0.0000000000      0.0000000000       2
     1593  1592  1621  1622    1  180.0000000000    1.0041600000       2
     1597  1592  1621  1620    1  0.0000000000      0.0000000000       2
     1597  1592  1621  1622    1  180.0000000000    0.0000000000       2
     1644  1643  1642  1641    1  0.0000000000      0.0000000000       2
     1645  1643  1642  1641    1  0.0000000000      0.0000000000       2
     1646  1643  1642  1641    1  0.0000000000      0.0000000000       2
     1809  1811  1813  1814    1  0.0000000000      0.5439200000       3
     1809  1811  1813  1821    1  0.0000000000      2.1756800000       3
     1812  1811  1813  1814    1  0.0000000000      0.5020800000       3
     1812  1811  1813  1821    1  0.0000000000      0.5439200000       3
     1824  1811  1813  1814    1  0.0000000000      0.6508444444       3
     1824  1811  1813  1821    1  0.0000000000      0.6508444444       3
     1809  1811  1824  1808    1  180.0000000000    1.0041600000       2
     1809  1811  1824  1825    1  180.0000000000    1.0041600000       2
     1812  1811  1824  1808    1  0.0000000000      0.0000000000       1
     1812  1811  1824  1825    1  0.0000000000      0.0000000000       1
     1813  1811  1824  1808    1  180.0000000000    1.0041600000       2
     1813  1811  1824  1825    1  180.0000000000    1.0041600000       2
     1805  1806  1808  1809    1  180.0000000000    15.1670000000      2
     1805  1806  1808  1824    1  180.0000000000    15.1670000000      2
     1807  1806  1808  1809    1  180.0000000000    15.1670000000      2
     1807  1806  1808  1824    1  180.0000000000    15.1670000000      2
     1602  1604  1606  1607    1  0.0000000000      0.5439200000       3
     1602  1604  1606  1614    1  0.0000000000      2.1756800000       3
     1605  1604  1606  1607    1  0.0000000000      0.5020800000       3
     1605  1604  1606  1614    1  0.0000000000      0.5439200000       3
     1617  1604  1606  1607    1  0.0000000000      0.6508444444       3
     1617  1604  1606  1614    1  0.0000000000      0.6508444444       3
     1602  1604  1617  1601    1  180.0000000000    1.0041600000       2
     1602  1604  1617  1618    1  180.0000000000    1.0041600000       2
     1605  1604  1617  1601    1  0.0000000000      0.0000000000       1
     1605  1604  1617  1618    1  0.0000000000      0.0000000000       1
     1606  1604  1617  1601    1  180.0000000000    1.0041600000       2
     1606  1604  1617  1618    1  180.0000000000    1.0041600000       2
     1599  1601  1602  1603    1  0.0000000000      0.0000000000       1
     1599  1601  1602  1604    1  180.0000000000    1.0041600000       2
     1599  1601  1602  1612    1  180.0000000000    1.0041600000       2
     1617  1601  1602  1603    1  0.0000000000      0.0000000000       1
     1617  1601  1602  1604    1  180.0000000000    1.0041600000       2
     1617  1601  1602  1612    1  180.0000000000    1.0041600000       2
     1599  1601  1617  1604    1  180.0000000000    15.1670000000      2
     1599  1601  1617  1618    1  180.0000000000    15.1670000000      2
     1602  1601  1617  1604    1  180.0000000000    15.1670000000      2
     1602  1601  1617  1618    1  180.0000000000    15.1670000000      2
     1819  1817  1815  1816    1  0.0000000000      0.6508444444       3
     1819  1817  1815  3986    1  0.0000000000      0.6508444444       3
     3987  1817  1815  1816    1  0.0000000000      0.6508444444       3
     1813  1821  1819  1817    1  0.0000000000      0.6508444444       3
     1819  1821  1813  1815    1  0.0000000000      0.6508444444       3
     1635  1640  1641  1642    1  180.0000000000    15.1670000000      2
     1635  1640  1641  4922    1  180.0000000000    15.1670000000      2
     1635  1640  4920  4918    1  180.0000000000    1.0041600000       2
     1641  1640  4920  4918    1  180.0000000000    1.0041600000       2
     1635  1640  4920  4921    1  0.0000000000      0.0000000000       1
     1641  1640  4920  4921    1  0.0000000000      0.0000000000       1
     1635  1640  4920  4922    1  180.0000000000    1.0041600000       2
     1641  1640  4920  4922    1  180.0000000000    1.0041600000       2
     1799  1828  1829  1830    1  180.0000000000    15.1670000000      2
     1799  1828  1829  1831    1  180.0000000000    15.1670000000      2
     1827  1828  1829  1830    1  180.0000000000    15.1670000000      2
     1827  1828  1829  1831    1  180.0000000000    15.1670000000      2
     5488  5489  5491  5492    1  0.0000000000      0.6508444444       3
     5488  5489  5491  5493    1  0.0000000000      0.6508444444       3
     5488  5489  5491  5518    1  0.0000000000      0.6508444444       3
     5490  5489  5491  5492    1  0.0000000000      0.6508444444       3
     5490  5489  5491  5493    1  0.0000000000      0.6508444444       3
     5490  5489  5491  5518    1  0.0000000000      0.6508444444       3
     5513  5489  5491  5492    1  0.0000000000      0.6508444444       3
     5513  5489  5491  5493    1  0.0000000000      0.6508444444       3
     5513  5489  5491  5518    1  0.0000000000      0.6508444444       3
     5488  5489  5513  5511    1  0.0000000000      0.6508444444       3
     5488  5489  5513  5514    1  0.0000000000      0.6508444444       3
     5488  5489  5513  5515    1  0.0000000000      0.6508444444       3
     5490  5489  5513  5511    1  0.0000000000      0.5439200000       3
     5490  5489  5513  5514    1  0.0000000000      0.5020800000       3
     5490  5489  5513  5515    1  0.0000000000      0.5439200000       3
     5491  5489  5513  5511    1  0.0000000000      2.1756800000       3
     5491  5489  5513  5514    1  0.0000000000      0.5439200000       3
     5491  5489  5513  5515    1  0.0000000000      2.1756800000       3
     3986  3987  3988  3979    1  180.0000000000    15.1670000000      2
     3988  3987  3986  1815    1  180.0000000000    15.1670000000      2
     3988  3987  1817  1818    1  0.0000000000      0.0000000000       1
     3986  3987  1817  1818    1  0.0000000000      0.0000000000       1
     3988  3987  1817  1819    1  180.0000000000    1.0041600000       2
     3986  3987  1817  1819    1  180.0000000000    1.0041600000       2
     3988  3987  1817  1815    1  180.0000000000    1.0041600000       2
     3986  3987  1817  1815    1  180.0000000000    1.0041600000       2
     1     5     6     7       1  0.0000000000      0.5439200000       3
     1     5     6     8       1  0.0000000000      0.5439200000       3
     1     5     6     9       1  0.0000000000      0.5439200000       3
     10    5     6     7       1  0.0000000000      0.6508444444       3
     10    5     6     8       1  0.0000000000      0.6508444444       3
     10    5     6     9       1  0.0000000000      0.6508444444       3
     34    5     6     7       1  0.0000000000      0.6508444444       3
     34    5     6     8       1  0.0000000000      0.6508444444       3
     34    5     6     9       1  0.0000000000      0.6508444444       3
     1     5     10    11      1  0.0000000000      0.0000000000       2
     1     5     10    31      1  180.0000000000    1.0041600000       2
     6     5     10    11      1  0.0000000000      0.0000000000       2
     6     5     10    31      1  180.0000000000    1.0041600000       2
     34    5     10    11      1  0.0000000000      0.0000000000       2
     34    5     10    31      1  180.0000000000    0.0000000000       2
     1     5     34    33      1  0.0000000000      0.0000000000       2
     1     5     34    35      1  180.0000000000    1.0041600000       2
     6     5     34    33      1  0.0000000000      0.0000000000       2
     6     5     34    35      1  180.0000000000    1.0041600000       2
     10    5     34    33      1  0.0000000000      0.0000000000       2
     10    5     34    35      1  180.0000000000    0.0000000000       2
     5     10    11    12      1  180.0000000000    15.1670000000      2
     5     10    11    33      1  180.0000000000    15.1670000000      2
     31    10    11    12      1  180.0000000000    15.1670000000      2
     31    10    11    33      1  180.0000000000    15.1670000000      2
     5     10    31    30      1  180.0000000000    15.1670000000      2
     5     10    31    32      1  180.0000000000    15.1670000000      2
     11    10    31    30      1  180.0000000000    15.1670000000      2
     11    10    31    32      1  180.0000000000    15.1670000000      2
     10    11    12    13      1  180.0000000000    15.1670000000      2
     10    11    12    14      1  180.0000000000    15.1670000000      2
     33    11    12    13      1  180.0000000000    15.1670000000      2
     33    11    12    14      1  180.0000000000    15.1670000000      2
     10    11    33    34      1  180.0000000000    4.1840000000       2
     10    11    33    68      1  180.0000000000    4.1840000000       2
     12    11    33    34      1  180.0000000000    4.1840000000       2
     12    11    33    68      1  180.0000000000    4.1840000000       2
     11    12    14    15      1  180.0000000000    15.1670000000      2
     11    12    14    30      1  180.0000000000    15.1670000000      2
     13    12    14    15      1  180.0000000000    15.1670000000      2
     13    12    14    30      1  180.0000000000    15.1670000000      2
     12    14    15    16      1  0.0000000000      0.0000000000       1
     12    14    15    17      1  180.0000000000    1.0041600000       2
     12    14    15    25      1  180.0000000000    1.0041600000       2
     30    14    15    16      1  0.0000000000      0.0000000000       1
     30    14    15    17      1  180.0000000000    1.0041600000       2
     30    14    15    25      1  180.0000000000    1.0041600000       2
     12    14    30    17      1  180.0000000000    15.1670000000      2
     12    14    30    31      1  180.0000000000    15.1670000000      2
     15    14    30    17      1  180.0000000000    15.1670000000      2
     15    14    30    31      1  180.0000000000    15.1670000000      2
     11    33    34    5       1  180.0000000000    15.1670000000      2
     11    33    34    35      1  180.0000000000    15.1670000000      2
     68    33    34    5       1  180.0000000000    15.1670000000      2
     68    33    34    35      1  180.0000000000    15.1670000000      2
     11    33    68    67      1  180.0000000000    15.1670000000      2
     11    33    68    69      1  180.0000000000    15.1670000000      2
     34    33    68    67      1  180.0000000000    15.1670000000      2
     34    33    68    69      1  180.0000000000    15.1670000000      2
     5     34    35    36      1  180.0000000000    15.1670000000      2
     5     34    35    37      1  180.0000000000    15.1670000000      2
     33    34    35    36      1  180.0000000000    15.1670000000      2
     33    34    35    37      1  180.0000000000    15.1670000000      2
     37    67    68    33      1  180.0000000000    15.1670000000      2
     37    67    68    69      1  180.0000000000    15.1670000000      2
     40    67    68    33      1  180.0000000000    15.1670000000      2
     40    67    68    69      1  180.0000000000    15.1670000000      2
     34    35    37    38      1  180.0000000000    15.1670000000      2
     34    35    37    67      1  180.0000000000    15.1670000000      2
     36    35    37    38      1  180.0000000000    15.1670000000      2
     36    35    37    67      1  180.0000000000    15.1670000000      2
     35    37    38    39      1  0.0000000000      0.0000000000       1
     35    37    38    40      1  180.0000000000    1.0041600000       2
     35    37    38    62      1  180.0000000000    1.0041600000       2
     67    37    38    39      1  0.0000000000      0.0000000000       1
     67    37    38    40      1  180.0000000000    1.0041600000       2
     67    37    38    62      1  180.0000000000    1.0041600000       2
     35    37    67    40      1  180.0000000000    15.1670000000      2
     35    37    67    68      1  180.0000000000    15.1670000000      2
     38    37    67    40      1  180.0000000000    15.1670000000      2
     38    37    67    68      1  180.0000000000    15.1670000000      2
     38    40    42    43      1  0.0000000000      0.5439200000       3
     38    40    42    44      1  0.0000000000      2.1756800000       3
     38    40    42    64      1  0.0000000000      2.1756800000       3
     41    40    42    43      1  0.0000000000      0.5020800000       3
     41    40    42    44      1  0.0000000000      0.5439200000       3
     41    40    42    64      1  0.0000000000      0.5439200000       3
     67    40    42    43      1  0.0000000000      0.6508444444       3
     67    40    42    44      1  0.0000000000      0.6508444444       3
     67    40    42    64      1  0.0000000000      0.6508444444       3
     38    40    67    37      1  180.0000000000    1.0041600000       2
     38    40    67    68      1  180.0000000000    1.0041600000       2
     41    40    67    37      1  0.0000000000      0.0000000000       1
     41    40    67    68      1  0.0000000000      0.0000000000       1
     42    40    67    37      1  180.0000000000    1.0041600000       2
     42    40    67    68      1  180.0000000000    1.0041600000       2
     40    42    44    45      1  0.0000000000      0.5439200000       3
     40    42    44    46      1  0.0000000000      0.6508444444       3
     40    42    44    60      1  0.0000000000      2.1756800000       3
     43    42    44    45      1  0.0000000000      0.5020800000       3
     43    42    44    46      1  0.0000000000      0.6508444444       3
     43    42    44    60      1  0.0000000000      0.5439200000       3
     64    42    44    45      1  0.0000000000      0.5439200000       3
     64    42    44    46      1  0.0000000000      0.6508444444       3
     64    42    44    60      1  0.0000000000      2.1756800000       3
     40    42    64    62      1  0.0000000000      0.6508444444       3
     40    42    64    65      1  0.0000000000      0.6508444444       3
     40    42    64    66      1  0.0000000000      0.6508444444       3
     43    42    64    62      1  0.0000000000      0.5439200000       3
     43    42    64    65      1  0.0000000000      0.5020800000       3
     43    42    64    66      1  0.0000000000      0.5020800000       3
     44    42    64    62      1  0.0000000000      0.6508444444       3
     44    42    64    65      1  0.0000000000      0.6508444444       3
     44    42    64    66      1  0.0000000000      0.6508444444       3
     44    46    47    48      1  180.0000000000    15.1670000000      2
     44    46    47    60      1  180.0000000000    15.1670000000      2
     55    46    47    48      1  180.0000000000    15.1670000000      2
     55    46    47    60      1  180.0000000000    15.1670000000      2
     44    46    55    56      1  180.0000000000    15.1670000000      2
     47    46    55    54      1  180.0000000000    15.1670000000      2
     47    46    55    56      1  180.0000000000    15.1670000000      2
     2     1     5     6       1  0.0000000000      0.5439200000       3
     2     1     5     10      1  0.0000000000      0.6508444444       3
     2     1     5     34      1  0.0000000000      0.6508444444       3
     3     1     5     6       1  0.0000000000      0.5439200000       3
     3     1     5     10      1  0.0000000000      0.6508444444       3
     3     1     5     34      1  0.0000000000      0.6508444444       3
     4     1     5     6       1  0.0000000000      0.5439200000       3
     4     1     5     10      1  0.0000000000      0.6508444444       3
     4     1     5     34      1  0.0000000000      0.6508444444       3
     14    15    17    18      1  0.0000000000      0.6508444444       3
     14    15    17    19      1  0.0000000000      0.6508444444       3
     14    15    17    30      1  0.0000000000      0.6508444444       3
     16    15    17    18      1  0.0000000000      0.6508444444       3
     16    15    17    19      1  0.0000000000      0.6508444444       3
     16    15    17    30      1  0.0000000000      0.6508444444       3
     25    15    17    18      1  0.0000000000      0.6508444444       3
     25    15    17    19      1  0.0000000000      0.6508444444       3
     25    15    17    30      1  0.0000000000      0.6508444444       3
     14    15    25    26      1  0.0000000000      0.6508444444       3
     14    15    25    27      1  0.0000000000      0.6508444444       3
     16    15    25    26      1  0.0000000000      0.5020800000       3
     16    15    25    27      1  0.0000000000      0.5439200000       3
     17    15    25    26      1  0.0000000000      0.5439200000       3
     17    15    25    27      1  0.0000000000      2.1756800000       3
     23    25    15    14      1  0.0000000000      0.6508444444       3
     23    25    15    16      1  0.0000000000      0.5439200000       3
     23    25    15    17      1  0.0000000000      2.1756800000       3
     15    25    23    21      1  0.0000000000      2.1756800000       3
     26    25    23    21      1  0.0000000000      0.5439200000       3
     27    25    23    21      1  0.0000000000      2.1756800000       3
     15    25    23    24      1  0.0000000000      0.5439200000       3
     26    25    23    24      1  0.0000000000      0.5020800000       3
     27    25    23    24      1  0.0000000000      0.5439200000       3
     15    25    27    19      1  0.0000000000      0.6508444444       3
     15    25    27    28      1  0.0000000000      0.6508444444       3
     15    25    27    29      1  0.0000000000      0.6508444444       3
     23    25    27    28      1  0.0000000000      0.6508444444       3
     23    25    27    29      1  0.0000000000      0.6508444444       3
     26    25    27    19      1  0.0000000000      0.5439200000       3
     26    25    27    28      1  0.0000000000      0.5020800000       3
     26    25    27    29      1  0.0000000000      0.5020800000       3
     15    25    23    6815    1  0.0000000000      0.6508444444       3
     26    25    23    6815    1  0.0000000000      0.6508444444       3
     27    25    23    6815    1  0.0000000000      0.6508444444       3
     37    38    40    41      1  0.0000000000      0.6508444444       3
     37    38    40    42      1  0.0000000000      0.6508444444       3
     37    38    40    67      1  0.0000000000      0.6508444444       3
     39    38    40    41      1  0.0000000000      0.6508444444       3
     39    38    40    42      1  0.0000000000      0.6508444444       3
     39    38    40    67      1  0.0000000000      0.6508444444       3
     62    38    40    41      1  0.0000000000      0.6508444444       3
     62    38    40    42      1  0.0000000000      0.6508444444       3
     62    38    40    67      1  0.0000000000      0.6508444444       3
     37    38    62    60      1  0.0000000000      0.6508444444       3
     37    38    62    63      1  0.0000000000      0.6508444444       3
     37    38    62    64      1  0.0000000000      0.6508444444       3
     39    38    62    60      1  0.0000000000      0.5439200000       3
     39    38    62    63      1  0.0000000000      0.5020800000       3
     39    38    62    64      1  0.0000000000      0.5439200000       3
     40    38    62    60      1  0.0000000000      2.1756800000       3
     40    38    62    63      1  0.0000000000      0.5439200000       3
     40    38    62    64      1  0.0000000000      2.1756800000       3
     14    30    31    10      1  180.0000000000    15.1670000000      2
     14    30    31    32      1  180.0000000000    15.1670000000      2
     17    30    31    10      1  180.0000000000    15.1670000000      2
     17    30    31    32      1  180.0000000000    15.1670000000      2
     25    27    19    21      1  0.0000000000      0.6508444444       3
     19    27    25    23      1  0.0000000000      0.6508444444       3
     42    44    46    47      1  180.0000000000    1.0041600000       2
     42    44    46    55      1  180.0000000000    1.0041600000       2
     45    44    46    47      1  0.0000000000      0.0000000000       1
     45    44    46    55      1  0.0000000000      0.0000000000       1
     60    44    46    47      1  180.0000000000    1.0041600000       2
     60    44    46    55      1  180.0000000000    1.0041600000       2
     42    44    60    47      1  0.0000000000      0.6508444444       3
     42    44    60    61      1  0.0000000000      0.6508444444       3
     42    44    60    62      1  0.0000000000      0.6508444444       3
     45    44    60    47      1  0.0000000000      0.6508444444       3
     45    44    60    61      1  0.0000000000      0.6508444444       3
     45    44    60    62      1  0.0000000000      0.6508444444       3
     46    44    60    47      1  0.0000000000      0.6508444444       3
     46    44    60    61      1  0.0000000000      0.6508444444       3
     46    44    60    62      1  0.0000000000      0.6508444444       3
     56    55    54    53      1  180.0000000000    15.1670000000      2
     46    55    56    57      1  0.0000000000      0.0000000000       2
     46    55    56    58      1  0.0000000000      0.0000000000       2
     46    55    56    59      1  0.0000000000      0.0000000000       2
     54    55    46    44      1  180.0000000000    15.1670000000      2
     56    55    54    920     1  180.0000000000    15.1670000000      2
     46    55    54    920     1  180.0000000000    15.1670000000      2
     15    17    19    20      1  0.0000000000      0.5439200000       3
     15    17    19    27      1  0.0000000000      2.1756800000       3
     18    17    19    20      1  0.0000000000      0.5020800000       3
     18    17    19    27      1  0.0000000000      0.5439200000       3
     30    17    19    20      1  0.0000000000      0.6508444444       3
     30    17    19    27      1  0.0000000000      0.6508444444       3
     15    17    30    14      1  180.0000000000    1.0041600000       2
     15    17    30    31      1  180.0000000000    1.0041600000       2
     18    17    30    14      1  0.0000000000      0.0000000000       1
     18    17    30    31      1  0.0000000000      0.0000000000       1
     19    17    30    14      1  180.0000000000    1.0041600000       2
     19    17    30    31      1  180.0000000000    1.0041600000       2
     4835  4864  4865  4866    1  180.0000000000    15.1670000000      2
     4835  4864  4865  4867    1  180.0000000000    15.1670000000      2
     4863  4864  4865  4866    1  180.0000000000    15.1670000000      2
     4863  4864  4865  4867    1  180.0000000000    15.1670000000      2
     46    47    48    49      1  180.0000000000    15.1670000000      2
     46    47    48    53      1  180.0000000000    15.1670000000      2
     60    47    48    49      1  180.0000000000    15.1670000000      2
     46    47    60    44      1  180.0000000000    1.0041600000       2
     46    47    60    61      1  0.0000000000      0.0000000000       1
     46    47    60    62      1  180.0000000000    1.0041600000       2
     48    47    60    44      1  180.0000000000    1.0041600000       2
     48    47    60    61      1  0.0000000000      0.0000000000       1
     48    47    60    62      1  180.0000000000    1.0041600000       2
     6592  6593  6595  6596    1  0.0000000000      0.6508444444       3
     6592  6593  6595  6597    1  0.0000000000      0.6508444444       3
     6592  6593  6595  6622    1  0.0000000000      0.6508444444       3
     6594  6593  6595  6596    1  0.0000000000      0.6508444444       3
     6594  6593  6595  6597    1  0.0000000000      0.6508444444       3
     6594  6593  6595  6622    1  0.0000000000      0.6508444444       3
     6617  6593  6595  6596    1  0.0000000000      0.6508444444       3
     6617  6593  6595  6597    1  0.0000000000      0.6508444444       3
     6617  6593  6595  6622    1  0.0000000000      0.6508444444       3
     6592  6593  6617  6615    1  0.0000000000      0.6508444444       3
     6592  6593  6617  6618    1  0.0000000000      0.6508444444       3
     6592  6593  6617  6619    1  0.0000000000      0.6508444444       3
     6594  6593  6617  6615    1  0.0000000000      0.5439200000       3
     6594  6593  6617  6618    1  0.0000000000      0.5020800000       3
     6594  6593  6617  6619    1  0.0000000000      0.5439200000       3
     6595  6593  6617  6615    1  0.0000000000      2.1756800000       3
     6595  6593  6617  6618    1  0.0000000000      0.5439200000       3
     6595  6593  6617  6619    1  0.0000000000      2.1756800000       3
     19    21    23    24      1  0.0000000000      0.6508444444       3
     19    21    23    25      1  0.0000000000      0.6508444444       3
     22    21    23    24      1  0.0000000000      0.6508444444       3
     6816  21    23    24      1  0.0000000000      0.6508444444       3
     6816  21    23    6815    1  0.0000000000      0.6508444444       3
     19    21    23    6815    1  0.0000000000      0.6508444444       3
     48    53    54    55      1  180.0000000000    15.1670000000      2
     918   53    54    920     1  180.0000000000    15.1670000000      2
     54    53    918   919     1  0.0000000000      0.0000000000       1
     48    53    918   919     1  0.0000000000      0.0000000000       1
     54    53    918   920     1  180.0000000000    1.0041600000       2
     48    53    918   920     1  180.0000000000    1.0041600000       2
     54    53    918   916     1  180.0000000000    1.0041600000       2
     48    53    918   916     1  180.0000000000    1.0041600000       2
     48    53    54    920     1  180.0000000000    15.1670000000      2
     25    23    21    22      1  0.0000000000      0.6508444444       3
     25    23    21    6816    1  0.0000000000      0.6508444444       3
     6815  23    21    22      1  0.0000000000      0.6508444444       3
     1119  1121  1123  1124    1  0.0000000000      0.5439200000       3
     1119  1121  1123  1131    1  0.0000000000      2.1756800000       3
     1122  1121  1123  1124    1  0.0000000000      0.5020800000       3
     1122  1121  1123  1131    1  0.0000000000      0.5439200000       3
     1134  1121  1123  1124    1  0.0000000000      0.6508444444       3
     1134  1121  1123  1131    1  0.0000000000      0.6508444444       3
     1119  1121  1134  1118    1  180.0000000000    1.0041600000       2
     1119  1121  1134  1135    1  180.0000000000    1.0041600000       2
     1122  1121  1134  1118    1  0.0000000000      0.0000000000       1
     1122  1121  1134  1135    1  0.0000000000      0.0000000000       1
     1123  1121  1134  1118    1  180.0000000000    1.0041600000       2
     1123  1121  1134  1135    1  180.0000000000    1.0041600000       2
     4864  4865  4867  4868    1  180.0000000000    15.1670000000      2
     4864  4865  4867  4897    1  180.0000000000    15.1670000000      2
     4866  4865  4867  4868    1  180.0000000000    15.1670000000      2
     4866  4865  4867  4897    1  180.0000000000    15.1670000000      2
     4841  4863  4864  4835    1  180.0000000000    15.1670000000      2
     4841  4863  4864  4865    1  180.0000000000    15.1670000000      2
     4898  4863  4864  4835    1  180.0000000000    15.1670000000      2
     4898  4863  4864  4865    1  180.0000000000    15.1670000000      2
     4841  4863  4898  4897    1  180.0000000000    15.1670000000      2
     4841  4863  4898  4899    1  180.0000000000    15.1670000000      2
     4864  4863  4898  4897    1  180.0000000000    15.1670000000      2
     4864  4863  4898  4899    1  180.0000000000    15.1670000000      2
     6589  6590  6592  6593    1  180.0000000000    15.1670000000      2
     6589  6590  6592  6622    1  180.0000000000    15.1670000000      2
     6591  6590  6592  6593    1  180.0000000000    15.1670000000      2
     6591  6590  6592  6622    1  180.0000000000    15.1670000000      2
     6763  6767  6768  6769    1  0.0000000000      0.5439200000       3
     6763  6767  6768  6770    1  0.0000000000      0.5439200000       3
     6763  6767  6768  6771    1  0.0000000000      0.5439200000       3
     6772  6767  6768  6769    1  0.0000000000      0.6508444444       3
     6772  6767  6768  6770    1  0.0000000000      0.6508444444       3
     6772  6767  6768  6771    1  0.0000000000      0.6508444444       3
     6796  6767  6768  6769    1  0.0000000000      0.6508444444       3
     6796  6767  6768  6770    1  0.0000000000      0.6508444444       3
     6796  6767  6768  6771    1  0.0000000000      0.6508444444       3
     6763  6767  6772  6773    1  0.0000000000      0.0000000000       2
     6763  6767  6772  6793    1  180.0000000000    1.0041600000       2
     6768  6767  6772  6773    1  0.0000000000      0.0000000000       2
     6768  6767  6772  6793    1  180.0000000000    1.0041600000       2
     6796  6767  6772  6773    1  0.0000000000      0.0000000000       2
     6796  6767  6772  6793    1  180.0000000000    0.0000000000       2
     6763  6767  6796  6795    1  0.0000000000      0.0000000000       2
     6763  6767  6796  6797    1  180.0000000000    1.0041600000       2
     6768  6767  6796  6795    1  0.0000000000      0.0000000000       2
     6768  6767  6796  6797    1  180.0000000000    1.0041600000       2
     6772  6767  6796  6795    1  0.0000000000      0.0000000000       2
     6772  6767  6796  6797    1  180.0000000000    0.0000000000       2
     2123  2124  2125  2116    1  180.0000000000    15.1670000000      2
     5127  2124  2123  5129    1  180.0000000000    15.1670000000      2
     2123  2124  5127  5125    1  180.0000000000    1.0041600000       2
     2125  2124  5127  5125    1  180.0000000000    1.0041600000       2
     2123  2124  5127  5128    1  0.0000000000      0.0000000000       1
     2125  2124  5127  5128    1  0.0000000000      0.0000000000       1
     2123  2124  5127  5129    1  180.0000000000    1.0041600000       2
     2125  2124  5127  5129    1  180.0000000000    1.0041600000       2
     2125  2124  2123  5129    1  180.0000000000    15.1670000000      2
     2114  2130  2132  2108    1  0.0000000000      2.1756800000       3
     2114  2130  2132  2133    1  0.0000000000      0.5439200000       3
     2114  2130  2132  2134    1  0.0000000000      2.1756800000       3
     2117  2130  2132  2108    1  0.0000000000      0.6508444444       3
     2117  2130  2132  2133    1  0.0000000000      0.6508444444       3
     2117  2130  2132  2134    1  0.0000000000      0.6508444444       3
     2131  2130  2132  2108    1  0.0000000000      0.5439200000       3
     2131  2130  2132  2133    1  0.0000000000      0.5020800000       3
     2131  2130  2132  2134    1  0.0000000000      0.5439200000       3
     5129  5131  5121  5120    1  0.0000000000      0.6508444444       3
     5129  5131  5121  5122    1  0.0000000000      0.5439200000       3
     5129  5131  5121  5123    1  0.0000000000      2.1756800000       3
     5121  5131  5129  5127    1  0.0000000000      2.1756800000       3
     5132  5131  5129  5127    1  0.0000000000      0.5439200000       3
     5133  5131  5129  5127    1  0.0000000000      2.1756800000       3
     5121  5131  5129  5130    1  0.0000000000      0.5439200000       3
     5132  5131  5129  5130    1  0.0000000000      0.5020800000       3
     5133  5131  5129  5130    1  0.0000000000      0.5439200000       3
     5121  5131  5133  5125    1  0.0000000000      0.6508444444       3
     5121  5131  5133  5134    1  0.0000000000      0.6508444444       3
     5121  5131  5133  5135    1  0.0000000000      0.6508444444       3
     5129  5131  5133  5134    1  0.0000000000      0.6508444444       3
     5129  5131  5133  5135    1  0.0000000000      0.6508444444       3
     5132  5131  5133  5125    1  0.0000000000      0.5439200000       3
     5132  5131  5133  5134    1  0.0000000000      0.5020800000       3
     5132  5131  5133  5135    1  0.0000000000      0.5020800000       3
     5121  5131  5129  2123    1  0.0000000000      0.6508444444       3
     5132  5131  5129  2123    1  0.0000000000      0.6508444444       3
     5133  5131  5129  2123    1  0.0000000000      0.6508444444       3
     5131  5133  5125  5127    1  0.0000000000      0.6508444444       3
     5125  5133  5131  5129    1  0.0000000000      0.6508444444       3
     2107  2108  2110  2111    1  0.0000000000      0.6508444444       3
     2107  2108  2110  2112    1  0.0000000000      0.6508444444       3
     2107  2108  2110  2137    1  0.0000000000      0.6508444444       3
     2109  2108  2110  2111    1  0.0000000000      0.6508444444       3
     2109  2108  2110  2112    1  0.0000000000      0.6508444444       3
     2109  2108  2110  2137    1  0.0000000000      0.6508444444       3
     2132  2108  2110  2111    1  0.0000000000      0.6508444444       3
     2132  2108  2110  2112    1  0.0000000000      0.6508444444       3
     2132  2108  2110  2137    1  0.0000000000      0.6508444444       3
     2107  2108  2132  2130    1  0.0000000000      0.6508444444       3
     2107  2108  2132  2133    1  0.0000000000      0.6508444444       3
     2107  2108  2132  2134    1  0.0000000000      0.6508444444       3
     2109  2108  2132  2130    1  0.0000000000      0.5439200000       3
     2109  2108  2132  2133    1  0.0000000000      0.5020800000       3
     2109  2108  2132  2134    1  0.0000000000      0.5439200000       3
     2110  2108  2132  2130    1  0.0000000000      2.1756800000       3
     2110  2108  2132  2133    1  0.0000000000      0.5439200000       3
     2110  2108  2132  2134    1  0.0000000000      2.1756800000       3
     2120  2119  2118  2123    1  0.0000000000      0.0000000000       2
     2121  2119  2118  2123    1  0.0000000000      0.0000000000       2
     2122  2119  2118  2123    1  0.0000000000      0.0000000000       2
     4832  4831  4835  4836    1  0.0000000000      0.5439200000       3
     4832  4831  4835  4840    1  0.0000000000      0.6508444444       3
     4832  4831  4835  4864    1  0.0000000000      0.6508444444       3
     4833  4831  4835  4836    1  0.0000000000      0.5439200000       3
     4833  4831  4835  4840    1  0.0000000000      0.6508444444       3
     4833  4831  4835  4864    1  0.0000000000      0.6508444444       3
     4834  4831  4835  4836    1  0.0000000000      0.5439200000       3
     4834  4831  4835  4840    1  0.0000000000      0.6508444444       3
     4834  4831  4835  4864    1  0.0000000000      0.6508444444       3
     5120  5121  5123  5124    1  0.0000000000      0.6508444444       3
     5120  5121  5123  5125    1  0.0000000000      0.6508444444       3
     5120  5121  5123  5136    1  0.0000000000      0.6508444444       3
     5122  5121  5123  5124    1  0.0000000000      0.6508444444       3
     5122  5121  5123  5125    1  0.0000000000      0.6508444444       3
     5122  5121  5123  5136    1  0.0000000000      0.6508444444       3
     5131  5121  5123  5124    1  0.0000000000      0.6508444444       3
     5131  5121  5123  5125    1  0.0000000000      0.6508444444       3
     5131  5121  5123  5136    1  0.0000000000      0.6508444444       3
     5120  5121  5131  5132    1  0.0000000000      0.6508444444       3
     5120  5121  5131  5133    1  0.0000000000      0.6508444444       3
     5122  5121  5131  5132    1  0.0000000000      0.5020800000       3
     5122  5121  5131  5133    1  0.0000000000      0.5439200000       3
     5123  5121  5131  5132    1  0.0000000000      0.5439200000       3
     5123  5121  5131  5133    1  0.0000000000      2.1756800000       3
     4831  4835  4836  4837    1  0.0000000000      0.5439200000       3
     4831  4835  4836  4838    1  0.0000000000      0.5439200000       3
     4831  4835  4836  4839    1  0.0000000000      0.5439200000       3
     4840  4835  4836  4837    1  0.0000000000      0.6508444444       3
     4840  4835  4836  4838    1  0.0000000000      0.6508444444       3
     4840  4835  4836  4839    1  0.0000000000      0.6508444444       3
     4864  4835  4836  4837    1  0.0000000000      0.6508444444       3
     4864  4835  4836  4838    1  0.0000000000      0.6508444444       3
     4864  4835  4836  4839    1  0.0000000000      0.6508444444       3
     4831  4835  4840  4841    1  0.0000000000      0.0000000000       2
     4831  4835  4840  4861    1  180.0000000000    1.0041600000       2
     4836  4835  4840  4841    1  0.0000000000      0.0000000000       2
     4836  4835  4840  4861    1  180.0000000000    1.0041600000       2
     4864  4835  4840  4841    1  0.0000000000      0.0000000000       2
     4864  4835  4840  4861    1  180.0000000000    0.0000000000       2
     4831  4835  4864  4863    1  0.0000000000      0.0000000000       2
     4831  4835  4864  4865    1  180.0000000000    1.0041600000       2
     4836  4835  4864  4863    1  0.0000000000      0.0000000000       2
     4836  4835  4864  4865    1  180.0000000000    1.0041600000       2
     4840  4835  4864  4863    1  0.0000000000      0.0000000000       2
     4840  4835  4864  4865    1  180.0000000000    0.0000000000       2
     2123  2118  2117  2130    1  180.0000000000    15.1670000000      2
     2117  2118  2119  2120    1  0.0000000000      0.0000000000       2
     2117  2118  2119  2121    1  0.0000000000      0.0000000000       2
     2117  2118  2119  2122    1  0.0000000000      0.0000000000       2
     2117  2118  2123  2124    1  180.0000000000    15.1670000000      2
     2119  2118  2123  2124    1  180.0000000000    15.1670000000      2
     2117  2118  2123  5129    1  180.0000000000    15.1670000000      2
     2119  2118  2123  5129    1  180.0000000000    15.1670000000      2
     1129  1127  1125  1126    1  0.0000000000      0.6508444444       3
     4884  1127  1125  1126    1  0.0000000000      0.6508444444       3
     4884  1127  1125  4883    1  0.0000000000      0.6508444444       3
     1129  1127  1125  4883    1  0.0000000000      0.6508444444       3
     5131  5129  5127  5128    1  0.0000000000      0.6508444444       3
     5131  5129  5127  2124    1  0.0000000000      0.6508444444       3
     2123  5129  5127  5128    1  0.0000000000      0.6508444444       3
     2110  2112  2114  2115    1  0.0000000000      0.5439200000       3
     2110  2112  2114  2116    1  0.0000000000      0.6508444444       3
     2110  2112  2114  2130    1  0.0000000000      2.1756800000       3
     2113  2112  2114  2115    1  0.0000000000      0.5020800000       3
     2113  2112  2114  2116    1  0.0000000000      0.6508444444       3
     2113  2112  2114  2130    1  0.0000000000      0.5439200000       3
     2134  2112  2114  2115    1  0.0000000000      0.5439200000       3
     2134  2112  2114  2116    1  0.0000000000      0.6508444444       3
     2134  2112  2114  2130    1  0.0000000000      2.1756800000       3
     2110  2112  2134  2132    1  0.0000000000      0.6508444444       3
     2110  2112  2134  2135    1  0.0000000000      0.6508444444       3
     2110  2112  2134  2136    1  0.0000000000      0.6508444444       3
     2113  2112  2134  2132    1  0.0000000000      0.5439200000       3
     2113  2112  2134  2135    1  0.0000000000      0.5020800000       3
     2113  2112  2134  2136    1  0.0000000000      0.5020800000       3
     2114  2112  2134  2132    1  0.0000000000      0.6508444444       3
     2114  2112  2134  2135    1  0.0000000000      0.6508444444       3
     2114  2112  2134  2136    1  0.0000000000      0.6508444444       3
     2108  2132  2134  2112    1  0.0000000000      0.6508444444       3
     2108  2132  2134  2135    1  0.0000000000      0.6508444444       3
     2108  2132  2134  2136    1  0.0000000000      0.6508444444       3
     2130  2132  2134  2112    1  0.0000000000      0.6508444444       3
     2130  2132  2134  2135    1  0.0000000000      0.6508444444       3
     2130  2132  2134  2136    1  0.0000000000      0.6508444444       3
     2133  2132  2134  2112    1  0.0000000000      0.5439200000       3
     2133  2132  2134  2135    1  0.0000000000      0.5020800000       3
     2133  2132  2134  2136    1  0.0000000000      0.5020800000       3
     5121  5123  5125  5126    1  0.0000000000      0.5439200000       3
     5121  5123  5125  5133    1  0.0000000000      2.1756800000       3
     5124  5123  5125  5126    1  0.0000000000      0.5020800000       3
     5124  5123  5125  5133    1  0.0000000000      0.5439200000       3
     5136  5123  5125  5126    1  0.0000000000      0.6508444444       3
     5136  5123  5125  5133    1  0.0000000000      0.6508444444       3
     5121  5123  5136  5120    1  180.0000000000    1.0041600000       2
     5121  5123  5136  5137    1  180.0000000000    1.0041600000       2
     5124  5123  5136  5120    1  0.0000000000      0.0000000000       1
     5124  5123  5136  5137    1  0.0000000000      0.0000000000       1
     5125  5123  5136  5120    1  180.0000000000    1.0041600000       2
     5125  5123  5136  5137    1  180.0000000000    1.0041600000       2
     2112  2114  2116  2117    1  180.0000000000    1.0041600000       2
     2112  2114  2116  2125    1  180.0000000000    1.0041600000       2
     2115  2114  2116  2117    1  0.0000000000      0.0000000000       1
     2115  2114  2116  2125    1  0.0000000000      0.0000000000       1
     2130  2114  2116  2117    1  180.0000000000    1.0041600000       2
     2130  2114  2116  2125    1  180.0000000000    1.0041600000       2
     2112  2114  2130  2117    1  0.0000000000      0.6508444444       3
     2112  2114  2130  2131    1  0.0000000000      0.6508444444       3
     2112  2114  2130  2132    1  0.0000000000      0.6508444444       3
     2115  2114  2130  2117    1  0.0000000000      0.6508444444       3
     2115  2114  2130  2131    1  0.0000000000      0.6508444444       3
     2115  2114  2130  2132    1  0.0000000000      0.6508444444       3
     2116  2114  2130  2117    1  0.0000000000      0.6508444444       3
     2116  2114  2130  2131    1  0.0000000000      0.6508444444       3
     2116  2114  2130  2132    1  0.0000000000      0.6508444444       3
     2104  2105  2107  2108    1  180.0000000000    15.1670000000      2
     2104  2105  2107  2137    1  180.0000000000    15.1670000000      2
     2106  2105  2107  2108    1  180.0000000000    15.1670000000      2
     2106  2105  2107  2137    1  180.0000000000    15.1670000000      2
     2116  2117  2118  2119    1  180.0000000000    15.1670000000      2
     2116  2117  2118  2123    1  180.0000000000    15.1670000000      2
     2130  2117  2118  2119    1  180.0000000000    15.1670000000      2
     2116  2117  2130  2114    1  180.0000000000    1.0041600000       2
     2116  2117  2130  2131    1  0.0000000000      0.0000000000       1
     2116  2117  2130  2132    1  180.0000000000    1.0041600000       2
     2118  2117  2130  2114    1  180.0000000000    1.0041600000       2
     2118  2117  2130  2131    1  0.0000000000      0.0000000000       1
     2118  2117  2130  2132    1  180.0000000000    1.0041600000       2
     2108  2110  2112  2113    1  0.0000000000      0.5439200000       3
     2108  2110  2112  2114    1  0.0000000000      2.1756800000       3
     2108  2110  2112  2134    1  0.0000000000      2.1756800000       3
     2111  2110  2112  2113    1  0.0000000000      0.5020800000       3
     2111  2110  2112  2114    1  0.0000000000      0.5439200000       3
     2111  2110  2112  2134    1  0.0000000000      0.5439200000       3
     2137  2110  2112  2113    1  0.0000000000      0.6508444444       3
     2137  2110  2112  2114    1  0.0000000000      0.6508444444       3
     2137  2110  2112  2134    1  0.0000000000      0.6508444444       3
     2108  2110  2137  2107    1  180.0000000000    1.0041600000       2
     2108  2110  2137  2138    1  180.0000000000    1.0041600000       2
     2111  2110  2137  2107    1  0.0000000000      0.0000000000       1
     2111  2110  2137  2138    1  0.0000000000      0.0000000000       1
     2112  2110  2137  2107    1  180.0000000000    1.0041600000       2
     2112  2110  2137  2138    1  180.0000000000    1.0041600000       2
     2118  2123  2124  2125    1  180.0000000000    15.1670000000      2
     2118  2123  2124  5127    1  180.0000000000    15.1670000000      2
     2118  2123  5129  5127    1  180.0000000000    1.0041600000       2
     2124  2123  5129  5127    1  180.0000000000    1.0041600000       2
     2118  2123  5129  5130    1  0.0000000000      0.0000000000       1
     2124  2123  5129  5130    1  0.0000000000      0.0000000000       1
     2118  2123  5129  5131    1  180.0000000000    1.0041600000       2
     2124  2123  5129  5131    1  180.0000000000    1.0041600000       2
     2114  2116  2117  2118    1  180.0000000000    15.1670000000      2
     2114  2116  2117  2130    1  180.0000000000    15.1670000000      2
     2125  2116  2117  2118    1  180.0000000000    15.1670000000      2
     2125  2116  2117  2130    1  180.0000000000    15.1670000000      2
     2114  2116  2125  2126    1  180.0000000000    15.1670000000      2
     2117  2116  2125  2124    1  180.0000000000    15.1670000000      2
     2117  2116  2125  2126    1  180.0000000000    15.1670000000      2
     2105  2107  2108  2109    1  0.0000000000      0.0000000000       1
     2105  2107  2108  2110    1  180.0000000000    1.0041600000       2
     2105  2107  2108  2132    1  180.0000000000    1.0041600000       2
     2137  2107  2108  2109    1  0.0000000000      0.0000000000       1
     2137  2107  2108  2110    1  180.0000000000    1.0041600000       2
     2137  2107  2108  2132    1  180.0000000000    1.0041600000       2
     2105  2107  2137  2110    1  180.0000000000    15.1670000000      2
     2105  2107  2137  2138    1  180.0000000000    15.1670000000      2
     2108  2107  2137  2110    1  180.0000000000    15.1670000000      2
     2108  2107  2137  2138    1  180.0000000000    15.1670000000      2
     2127  2126  2125  2124    1  0.0000000000      0.0000000000       2
     2128  2126  2125  2124    1  0.0000000000      0.0000000000       2
     2129  2126  2125  2124    1  0.0000000000      0.0000000000       2
     1123  1125  1127  1128    1  0.0000000000      0.6508444444       3
     1123  1125  1127  1129    1  0.0000000000      0.6508444444       3
     1126  1125  1127  1128    1  0.0000000000      0.6508444444       3
     1123  1125  1127  4884    1  0.0000000000      0.6508444444       3
     4883  1125  1127  1128    1  0.0000000000      0.6508444444       3
     6764  6763  6767  6768    1  0.0000000000      0.5439200000       3
     6764  6763  6767  6772    1  0.0000000000      0.6508444444       3
     6764  6763  6767  6796    1  0.0000000000      0.6508444444       3
     6765  6763  6767  6768    1  0.0000000000      0.5439200000       3
     6765  6763  6767  6772    1  0.0000000000      0.6508444444       3
     6765  6763  6767  6796    1  0.0000000000      0.6508444444       3
     6766  6763  6767  6768    1  0.0000000000      0.5439200000       3
     6766  6763  6767  6772    1  0.0000000000      0.6508444444       3
     6766  6763  6767  6796    1  0.0000000000      0.6508444444       3
     5125  5127  5129  5130    1  0.0000000000      0.6508444444       3
     5125  5127  5129  5131    1  0.0000000000      0.6508444444       3
     5128  5127  5129  5130    1  0.0000000000      0.6508444444       3
     2124  5127  5129  5130    1  0.0000000000      0.6508444444       3
     2124  5127  5129  2123    1  0.0000000000      0.6508444444       3
     5125  5127  5129  2123    1  0.0000000000      0.6508444444       3
     5127  5125  5123  5121    1  0.0000000000      2.1756800000       3
     5127  5125  5123  5124    1  0.0000000000      0.5439200000       3
     5127  5125  5123  5136    1  0.0000000000      0.6508444444       3
     5123  5125  5127  5128    1  0.0000000000      0.5439200000       3
     5123  5125  5127  5129    1  0.0000000000      2.1756800000       3
     5126  5125  5127  5128    1  0.0000000000      0.5020800000       3
     5126  5125  5127  5129    1  0.0000000000      0.5439200000       3
     5133  5125  5127  5128    1  0.0000000000      0.5439200000       3
     5133  5125  5127  5129    1  0.0000000000      2.1756800000       3
     5123  5125  5133  5131    1  0.0000000000      0.6508444444       3
     5123  5125  5133  5134    1  0.0000000000      0.6508444444       3
     5123  5125  5133  5135    1  0.0000000000      0.6508444444       3
     5126  5125  5133  5131    1  0.0000000000      0.5439200000       3
     5126  5125  5133  5134    1  0.0000000000      0.5020800000       3
     5126  5125  5133  5135    1  0.0000000000      0.5020800000       3
     5127  5125  5133  5134    1  0.0000000000      0.6508444444       3
     5127  5125  5133  5135    1  0.0000000000      0.6508444444       3
     5123  5125  5127  2124    1  0.0000000000      0.6508444444       3
     5126  5125  5127  2124    1  0.0000000000      0.6508444444       3
     5133  5125  5127  2124    1  0.0000000000      0.6508444444       3
     2124  2125  2116  2114    1  180.0000000000    15.1670000000      2
     2126  2125  2124  2123    1  180.0000000000    15.1670000000      2
     2116  2125  2126  2127    1  0.0000000000      0.0000000000       2
     2116  2125  2126  2128    1  0.0000000000      0.0000000000       2
     2116  2125  2126  2129    1  0.0000000000      0.0000000000       2
     2116  2125  2124  5127    1  180.0000000000    15.1670000000      2
     2126  2125  2124  5127    1  180.0000000000    15.1670000000      2
     2107  2137  2138  2103    1  180.0000000000    15.1670000000      2
     2107  2137  2138  2139    1  180.0000000000    15.1670000000      2
     2110  2137  2138  2103    1  180.0000000000    15.1670000000      2
     2110  2137  2138  2139    1  180.0000000000    15.1670000000      2
     2075  2104  2105  2106    1  180.0000000000    15.1670000000      2
     2075  2104  2105  2107    1  180.0000000000    15.1670000000      2
     2103  2104  2105  2106    1  180.0000000000    15.1670000000      2
     2103  2104  2105  2107    1  180.0000000000    15.1670000000      2
     4141  4145  4146  4147    1  0.0000000000      0.5439200000       3
     4141  4145  4146  4148    1  0.0000000000      0.5439200000       3
     4141  4145  4146  4149    1  0.0000000000      0.5439200000       3
     4150  4145  4146  4147    1  0.0000000000      0.6508444444       3
     4150  4145  4146  4148    1  0.0000000000      0.6508444444       3
     4150  4145  4146  4149    1  0.0000000000      0.6508444444       3
     4174  4145  4146  4147    1  0.0000000000      0.6508444444       3
     4174  4145  4146  4148    1  0.0000000000      0.6508444444       3
     4174  4145  4146  4149    1  0.0000000000      0.6508444444       3
     4141  4145  4150  4151    1  0.0000000000      0.0000000000       2
     4141  4145  4150  4171    1  180.0000000000    1.0041600000       2
     4146  4145  4150  4151    1  0.0000000000      0.0000000000       2
     4146  4145  4150  4171    1  180.0000000000    1.0041600000       2
     4174  4145  4150  4151    1  0.0000000000      0.0000000000       2
     4174  4145  4150  4171    1  180.0000000000    0.0000000000       2
     4141  4145  4174  4173    1  0.0000000000      0.0000000000       2
     4141  4145  4174  4175    1  180.0000000000    1.0041600000       2
     4146  4145  4174  4173    1  0.0000000000      0.0000000000       2
     4146  4145  4174  4175    1  180.0000000000    1.0041600000       2
     4150  4145  4174  4173    1  0.0000000000      0.0000000000       2
     4150  4145  4174  4175    1  180.0000000000    0.0000000000       2
     4145  4150  4151  4152    1  180.0000000000    15.1670000000      2
     4145  4150  4151  4173    1  180.0000000000    15.1670000000      2
     4171  4150  4151  4152    1  180.0000000000    15.1670000000      2
     4171  4150  4151  4173    1  180.0000000000    15.1670000000      2
     4145  4150  4171  4170    1  180.0000000000    15.1670000000      2
     4145  4150  4171  4172    1  180.0000000000    15.1670000000      2
     4151  4150  4171  4170    1  180.0000000000    15.1670000000      2
     4151  4150  4171  4172    1  180.0000000000    15.1670000000      2
     4154  4170  4171  4150    1  180.0000000000    15.1670000000      2
     4154  4170  4171  4172    1  180.0000000000    15.1670000000      2
     4157  4170  4171  4150    1  180.0000000000    15.1670000000      2
     4157  4170  4171  4172    1  180.0000000000    15.1670000000      2
     4145  4174  4175  4176    1  180.0000000000    15.1670000000      2
     4145  4174  4175  4177    1  180.0000000000    15.1670000000      2
     4173  4174  4175  4176    1  180.0000000000    15.1670000000      2
     4173  4174  4175  4177    1  180.0000000000    15.1670000000      2
     4142  4141  4145  4146    1  0.0000000000      0.5439200000       3
     4142  4141  4145  4150    1  0.0000000000      0.6508444444       3
     4142  4141  4145  4174    1  0.0000000000      0.6508444444       3
     4143  4141  4145  4146    1  0.0000000000      0.5439200000       3
     4143  4141  4145  4150    1  0.0000000000      0.6508444444       3
     4143  4141  4145  4174    1  0.0000000000      0.6508444444       3
     4144  4141  4145  4146    1  0.0000000000      0.5439200000       3
     4144  4141  4145  4150    1  0.0000000000      0.6508444444       3
     4144  4141  4145  4174    1  0.0000000000      0.6508444444       3
     4150  4151  4152  4153    1  180.0000000000    15.1670000000      2
     4150  4151  4152  4154    1  180.0000000000    15.1670000000      2
     4173  4151  4152  4153    1  180.0000000000    15.1670000000      2
     4173  4151  4152  4154    1  180.0000000000    15.1670000000      2
     4150  4151  4173  4174    1  180.0000000000    4.1840000000       2
     4150  4151  4173  4208    1  180.0000000000    4.1840000000       2
     4152  4151  4173  4174    1  180.0000000000    4.1840000000       2
     4152  4151  4173  4208    1  180.0000000000    4.1840000000       2
     4151  4173  4174  4145    1  180.0000000000    15.1670000000      2
     4151  4173  4174  4175    1  180.0000000000    15.1670000000      2
     4208  4173  4174  4145    1  180.0000000000    15.1670000000      2
     4208  4173  4174  4175    1  180.0000000000    15.1670000000      2
     4151  4173  4208  4207    1  180.0000000000    15.1670000000      2
     4151  4173  4208  4209    1  180.0000000000    15.1670000000      2
     4174  4173  4208  4207    1  180.0000000000    15.1670000000      2
     4174  4173  4208  4209    1  180.0000000000    15.1670000000      2
     4159  4167  4165  4163    1  0.0000000000      0.6508444444       3
     4165  4167  4159  4161    1  0.0000000000      0.6508444444       3
     4155  4157  4159  4160    1  0.0000000000      0.5439200000       3
     4155  4157  4159  4167    1  0.0000000000      2.1756800000       3
     4158  4157  4159  4160    1  0.0000000000      0.5020800000       3
     4158  4157  4159  4167    1  0.0000000000      0.5439200000       3
     4170  4157  4159  4160    1  0.0000000000      0.6508444444       3
     4170  4157  4159  4167    1  0.0000000000      0.6508444444       3
     4155  4157  4170  4154    1  180.0000000000    1.0041600000       2
     4155  4157  4170  4171    1  180.0000000000    1.0041600000       2
     4158  4157  4170  4154    1  0.0000000000      0.0000000000       1
     4158  4157  4170  4171    1  0.0000000000      0.0000000000       1
     4159  4157  4170  4154    1  180.0000000000    1.0041600000       2
     4159  4157  4170  4171    1  180.0000000000    1.0041600000       2
     4152  4154  4155  4156    1  0.0000000000      0.0000000000       1
     4152  4154  4155  4157    1  180.0000000000    1.0041600000       2
     4152  4154  4155  4165    1  180.0000000000    1.0041600000       2
     4170  4154  4155  4156    1  0.0000000000      0.0000000000       1
     4170  4154  4155  4157    1  180.0000000000    1.0041600000       2
     4170  4154  4155  4165    1  180.0000000000    1.0041600000       2
     4152  4154  4170  4157    1  180.0000000000    15.1670000000      2
     4152  4154  4170  4171    1  180.0000000000    15.1670000000      2
     4155  4154  4170  4157    1  180.0000000000    15.1670000000      2
     4155  4154  4170  4171    1  180.0000000000    15.1670000000      2
     4151  4152  4154  4155    1  180.0000000000    15.1670000000      2
     4151  4152  4154  4170    1  180.0000000000    15.1670000000      2
     4153  4152  4154  4155    1  180.0000000000    15.1670000000      2
     4153  4152  4154  4170    1  180.0000000000    15.1670000000      2
     4161  4159  4157  4155    1  0.0000000000      2.1756800000       3
     4161  4159  4157  4158    1  0.0000000000      0.5439200000       3
     4161  4159  4157  4170    1  0.0000000000      0.6508444444       3
     4157  4159  4161  4162    1  0.0000000000      0.5439200000       3
     4157  4159  4161  4163    1  0.0000000000      2.1756800000       3
     4160  4159  4161  4162    1  0.0000000000      0.5020800000       3
     4160  4159  4161  4163    1  0.0000000000      0.5439200000       3
     4167  4159  4161  4162    1  0.0000000000      0.5439200000       3
     4167  4159  4161  4163    1  0.0000000000      2.1756800000       3
     4157  4159  4167  4165    1  0.0000000000      0.6508444444       3
     4157  4159  4167  4168    1  0.0000000000      0.6508444444       3
     4157  4159  4167  4169    1  0.0000000000      0.6508444444       3
     4160  4159  4167  4165    1  0.0000000000      0.5439200000       3
     4160  4159  4167  4168    1  0.0000000000      0.5020800000       3
     4160  4159  4167  4169    1  0.0000000000      0.5020800000       3
     4161  4159  4167  4168    1  0.0000000000      0.6508444444       3
     4161  4159  4167  4169    1  0.0000000000      0.6508444444       3
     4157  4159  4161  1088    1  0.0000000000      0.6508444444       3
     4160  4159  4161  1088    1  0.0000000000      0.6508444444       3
     4167  4159  4161  1088    1  0.0000000000      0.6508444444       3
     4159  4161  4163  4164    1  0.0000000000      0.6508444444       3
     4159  4161  4163  4165    1  0.0000000000      0.6508444444       3
     4162  4161  4163  4164    1  0.0000000000      0.6508444444       3
     4159  4161  4163  1089    1  0.0000000000      0.6508444444       3
     1088  4161  4163  4164    1  0.0000000000      0.6508444444       3
     4165  4163  4161  4162    1  0.0000000000      0.6508444444       3
     1089  4163  4161  4162    1  0.0000000000      0.6508444444       3
     1089  4163  4161  1088    1  0.0000000000      0.6508444444       3
     4165  4163  4161  1088    1  0.0000000000      0.6508444444       3
     4154  4155  4157  4158    1  0.0000000000      0.6508444444       3
     4154  4155  4157  4159    1  0.0000000000      0.6508444444       3
     4154  4155  4157  4170    1  0.0000000000      0.6508444444       3
     4156  4155  4157  4158    1  0.0000000000      0.6508444444       3
     4156  4155  4157  4159    1  0.0000000000      0.6508444444       3
     4156  4155  4157  4170    1  0.0000000000      0.6508444444       3
     4165  4155  4157  4158    1  0.0000000000      0.6508444444       3
     4165  4155  4157  4159    1  0.0000000000      0.6508444444       3
     4165  4155  4157  4170    1  0.0000000000      0.6508444444       3
     4154  4155  4165  4166    1  0.0000000000      0.6508444444       3
     4154  4155  4165  4167    1  0.0000000000      0.6508444444       3
     4156  4155  4165  4166    1  0.0000000000      0.5020800000       3
     4156  4155  4165  4167    1  0.0000000000      0.5439200000       3
     4157  4155  4165  4166    1  0.0000000000      0.5439200000       3
     4157  4155  4165  4167    1  0.0000000000      2.1756800000       3
     4155  4165  4163  4161    1  0.0000000000      2.1756800000       3
     4166  4165  4163  4161    1  0.0000000000      0.5439200000       3
     4167  4165  4163  4161    1  0.0000000000      2.1756800000       3
     4155  4165  4163  4164    1  0.0000000000      0.5439200000       3
     4166  4165  4163  4164    1  0.0000000000      0.5020800000       3
     4167  4165  4163  4164    1  0.0000000000      0.5439200000       3
     4163  4165  4155  4154    1  0.0000000000      0.6508444444       3
     4163  4165  4155  4156    1  0.0000000000      0.5439200000       3
     4163  4165  4155  4157    1  0.0000000000      2.1756800000       3
     4155  4165  4167  4159    1  0.0000000000      0.6508444444       3
     4155  4165  4167  4168    1  0.0000000000      0.6508444444       3
     4155  4165  4167  4169    1  0.0000000000      0.6508444444       3
     4163  4165  4167  4168    1  0.0000000000      0.6508444444       3
     4163  4165  4167  4169    1  0.0000000000      0.6508444444       3
     4166  4165  4167  4159    1  0.0000000000      0.5439200000       3
     4166  4165  4167  4168    1  0.0000000000      0.5020800000       3
     4166  4165  4167  4169    1  0.0000000000      0.5020800000       3
     4155  4165  4163  1089    1  0.0000000000      0.6508444444       3
     4166  4165  4163  1089    1  0.0000000000      0.6508444444       3
     4167  4165  4163  1089    1  0.0000000000      0.6508444444       3
     1088  1089  1090  1081    1  180.0000000000    15.1670000000      2
     4163  1089  1088  4161    1  180.0000000000    15.1670000000      2
     1088  1089  4163  4161    1  180.0000000000    1.0041600000       2
     1090  1089  4163  4161    1  180.0000000000    1.0041600000       2
     1088  1089  4163  4164    1  0.0000000000      0.0000000000       1
     1090  1089  4163  4164    1  0.0000000000      0.0000000000       1
     1088  1089  4163  4165    1  180.0000000000    1.0041600000       2
     1090  1089  4163  4165    1  180.0000000000    1.0041600000       2
     1090  1089  1088  4161    1  180.0000000000    15.1670000000      2
     1083  1088  1089  1090    1  180.0000000000    15.1670000000      2
     1083  1088  1089  4163    1  180.0000000000    15.1670000000      2
     1089  1088  4161  4162    1  0.0000000000      0.0000000000       1
     1083  1088  4161  4162    1  0.0000000000      0.0000000000       1
     1089  1088  4161  4163    1  180.0000000000    1.0041600000       2
     1083  1088  4161  4163    1  180.0000000000    1.0041600000       2
     1089  1088  4161  4159    1  180.0000000000    1.0041600000       2
     1083  1088  4161  4159    1  180.0000000000    1.0041600000       2
     2779  2781  2783  2784    1  0.0000000000      0.6508444444       3
     2779  2781  2783  2785    1  0.0000000000      0.6508444444       3
     2782  2781  2783  2784    1  0.0000000000      0.6508444444       3
     4193  2781  2783  2784    1  0.0000000000      0.6508444444       3
     4193  2781  2783  4194    1  0.0000000000      0.6508444444       3
     2779  2781  2783  4194    1  0.0000000000      0.6508444444       3
     4177  4207  4208  4173    1  180.0000000000    15.1670000000      2
     4177  4207  4208  4209    1  180.0000000000    15.1670000000      2
     4180  4207  4208  4173    1  180.0000000000    15.1670000000      2
     4180  4207  4208  4209    1  180.0000000000    15.1670000000      2
     4174  4175  4177  4178    1  180.0000000000    15.1670000000      2
     4174  4175  4177  4207    1  180.0000000000    15.1670000000      2
     4176  4175  4177  4178    1  180.0000000000    15.1670000000      2
     4176  4175  4177  4207    1  180.0000000000    15.1670000000      2
     1091  1090  1089  1088    1  180.0000000000    15.1670000000      2
     1081  1090  1091  1092    1  0.0000000000      0.0000000000       2
     1081  1090  1091  1093    1  0.0000000000      0.0000000000       2
     1081  1090  1091  1094    1  0.0000000000      0.0000000000       2
     1089  1090  1081  1079    1  180.0000000000    15.1670000000      2
     1091  1090  1089  4163    1  180.0000000000    15.1670000000      2
     1081  1090  1089  4163    1  180.0000000000    15.1670000000      2
     6089  6091  6093  6094    1  0.0000000000      0.5439200000       3
     6089  6091  6093  6095    1  0.0000000000      2.1756800000       3
     6092  6091  6093  6094    1  0.0000000000      0.5020800000       3
     6092  6091  6093  6095    1  0.0000000000      0.5439200000       3
     6099  6091  6093  6094    1  0.0000000000      0.5439200000       3
     6099  6091  6093  6095    1  0.0000000000      2.1756800000       3
     6089  6091  6099  6097    1  0.0000000000      0.6508444444       3
     6089  6091  6099  6100    1  0.0000000000      0.6508444444       3
     6089  6091  6099  6101    1  0.0000000000      0.6508444444       3
     6092  6091  6099  6097    1  0.0000000000      0.5439200000       3
     6092  6091  6099  6100    1  0.0000000000      0.5020800000       3
     6092  6091  6099  6101    1  0.0000000000      0.5020800000       3
     6093  6091  6099  6100    1  0.0000000000      0.6508444444       3
     6093  6091  6099  6101    1  0.0000000000      0.6508444444       3
     6093  6091  6089  6087    1  0.0000000000      2.1756800000       3
     6093  6091  6089  6090    1  0.0000000000      0.5439200000       3
     6093  6091  6089  6102    1  0.0000000000      0.6508444444       3
     6092  6091  6093  4400    1  0.0000000000      0.6508444444       3
     6099  6091  6093  4400    1  0.0000000000      0.6508444444       3
     6089  6091  6093  4400    1  0.0000000000      0.6508444444       3
     2774  2775  2777  2778    1  0.0000000000      0.6508444444       3
     2774  2775  2777  2779    1  0.0000000000      0.6508444444       3
     2774  2775  2777  2790    1  0.0000000000      0.6508444444       3
     2776  2775  2777  2778    1  0.0000000000      0.6508444444       3
     2776  2775  2777  2779    1  0.0000000000      0.6508444444       3
     2776  2775  2777  2790    1  0.0000000000      0.6508444444       3
     2785  2775  2777  2778    1  0.0000000000      0.6508444444       3
     2785  2775  2777  2779    1  0.0000000000      0.6508444444       3
     2785  2775  2777  2790    1  0.0000000000      0.6508444444       3
     2774  2775  2785  2786    1  0.0000000000      0.6508444444       3
     2774  2775  2785  2787    1  0.0000000000      0.6508444444       3
     2776  2775  2785  2786    1  0.0000000000      0.5020800000       3
     2776  2775  2785  2787    1  0.0000000000      0.5439200000       3
     2777  2775  2785  2786    1  0.0000000000      0.5439200000       3
     2777  2775  2785  2787    1  0.0000000000      2.1756800000       3
     2781  2779  2777  2775    1  0.0000000000      2.1756800000       3
     2781  2779  2777  2778    1  0.0000000000      0.5439200000       3
     2781  2779  2777  2790    1  0.0000000000      0.6508444444       3
     2777  2779  2781  2782    1  0.0000000000      0.5439200000       3
     2777  2779  2781  2783    1  0.0000000000      2.1756800000       3
     2780  2779  2781  2782    1  0.0000000000      0.5020800000       3
     2780  2779  2781  2783    1  0.0000000000      0.5439200000       3
     2787  2779  2781  2782    1  0.0000000000      0.5439200000       3
     2787  2779  2781  2783    1  0.0000000000      2.1756800000       3
     2777  2779  2787  2785    1  0.0000000000      0.6508444444       3
     2777  2779  2787  2788    1  0.0000000000      0.6508444444       3
     2777  2779  2787  2789    1  0.0000000000      0.6508444444       3
     2780  2779  2787  2785    1  0.0000000000      0.5439200000       3
     2780  2779  2787  2788    1  0.0000000000      0.5020800000       3
     2780  2779  2787  2789    1  0.0000000000      0.5020800000       3
     2781  2779  2787  2788    1  0.0000000000      0.6508444444       3
     2781  2779  2787  2789    1  0.0000000000      0.6508444444       3
     2777  2779  2781  4193    1  0.0000000000      0.6508444444       3
     2780  2779  2781  4193    1  0.0000000000      0.6508444444       3
     2787  2779  2781  4193    1  0.0000000000      0.6508444444       3
     4193  4194  4195  4186    1  180.0000000000    15.1670000000      2
     4195  4194  4193  2781    1  180.0000000000    15.1670000000      2
     4195  4194  2783  2781    1  180.0000000000    1.0041600000       2
     4193  4194  2783  2781    1  180.0000000000    1.0041600000       2
     4195  4194  2783  2784    1  0.0000000000      0.0000000000       1
     4193  4194  2783  2784    1  0.0000000000      0.0000000000       1
     4195  4194  2783  2785    1  180.0000000000    1.0041600000       2
     4193  4194  2783  2785    1  180.0000000000    1.0041600000       2
     2775  2777  2779  2780    1  0.0000000000      0.5439200000       3
     2775  2777  2779  2787    1  0.0000000000      2.1756800000       3
     2778  2777  2779  2780    1  0.0000000000      0.5020800000       3
     2778  2777  2779  2787    1  0.0000000000      0.5439200000       3
     2790  2777  2779  2780    1  0.0000000000      0.6508444444       3
     2790  2777  2779  2787    1  0.0000000000      0.6508444444       3
     2775  2777  2790  2774    1  180.0000000000    1.0041600000       2
     2775  2777  2790  2791    1  180.0000000000    1.0041600000       2
     2778  2777  2790  2774    1  0.0000000000      0.0000000000       1
     2778  2777  2790  2791    1  0.0000000000      0.0000000000       1
     2779  2777  2790  2774    1  180.0000000000    1.0041600000       2
     2779  2777  2790  2791    1  180.0000000000    1.0041600000       2
     6091  6099  6097  6095    1  0.0000000000      0.6508444444       3
     6097  6099  6091  6093    1  0.0000000000      0.6508444444       3
     2785  2783  2781  2782    1  0.0000000000      0.6508444444       3
     2785  2783  2781  4193    1  0.0000000000      0.6508444444       3
     4194  2783  2781  2782    1  0.0000000000      0.6508444444       3
     5765  5789  5791  5769    1  0.0000000000      0.6508444444       3
     5765  5789  5791  5792    1  0.0000000000      0.6508444444       3
     5765  5789  5791  5793    1  0.0000000000      0.6508444444       3
     5787  5789  5791  5769    1  0.0000000000      0.6508444444       3
     5787  5789  5791  5792    1  0.0000000000      0.6508444444       3
     5787  5789  5791  5793    1  0.0000000000      0.6508444444       3
     5790  5789  5791  5769    1  0.0000000000      0.5439200000       3
     5790  5789  5791  5792    1  0.0000000000      0.5020800000       3
     5790  5789  5791  5793    1  0.0000000000      0.5020800000       3
     2774  2790  2791  2770    1  180.0000000000    15.1670000000      2
     2774  2790  2791  2792    1  180.0000000000    15.1670000000      2
     2777  2790  2791  2770    1  180.0000000000    15.1670000000      2
     2777  2790  2791  2792    1  180.0000000000    15.1670000000      2
     5771  5787  5789  5765    1  0.0000000000      2.1756800000       3
     5771  5787  5789  5790    1  0.0000000000      0.5439200000       3
     5771  5787  5789  5791    1  0.0000000000      2.1756800000       3
     5774  5787  5789  5765    1  0.0000000000      0.6508444444       3
     5774  5787  5789  5790    1  0.0000000000      0.6508444444       3
     5774  5787  5789  5791    1  0.0000000000      0.6508444444       3
     5788  5787  5789  5765    1  0.0000000000      0.5439200000       3
     5788  5787  5789  5790    1  0.0000000000      0.5020800000       3
     5788  5787  5789  5791    1  0.0000000000      0.5439200000       3
     5732  5761  5762  5763    1  180.0000000000    15.1670000000      2
     5732  5761  5762  5764    1  180.0000000000    15.1670000000      2
     5760  5761  5762  5763    1  180.0000000000    15.1670000000      2
     5760  5761  5762  5764    1  180.0000000000    15.1670000000      2
     4194  4195  4186  4184    1  180.0000000000    15.1670000000      2
     4186  4195  4196  4197    1  0.0000000000      0.0000000000       2
     4186  4195  4196  4198    1  0.0000000000      0.0000000000       2
     4186  4195  4196  4199    1  0.0000000000      0.0000000000       2
     4196  4195  4194  4193    1  180.0000000000    15.1670000000      2
     4186  4195  4194  2783    1  180.0000000000    15.1670000000      2
     4196  4195  4194  2783    1  180.0000000000    15.1670000000      2
     2785  2787  2779  2781    1  0.0000000000      0.6508444444       3
     2779  2787  2785  2783    1  0.0000000000      0.6508444444       3
     6087  6097  6099  6091    1  0.0000000000      0.6508444444       3
     6087  6097  6099  6100    1  0.0000000000      0.6508444444       3
     6087  6097  6099  6101    1  0.0000000000      0.6508444444       3
     6095  6097  6099  6100    1  0.0000000000      0.6508444444       3
     6095  6097  6099  6101    1  0.0000000000      0.6508444444       3
     6098  6097  6099  6091    1  0.0000000000      0.5439200000       3
     6098  6097  6099  6100    1  0.0000000000      0.5020800000       3
     6098  6097  6099  6101    1  0.0000000000      0.5020800000       3
     6087  6097  6095  6093    1  0.0000000000      2.1756800000       3
     6098  6097  6095  6093    1  0.0000000000      0.5439200000       3
     6099  6097  6095  6093    1  0.0000000000      2.1756800000       3
     6087  6097  6095  6096    1  0.0000000000      0.5439200000       3
     6098  6097  6095  6096    1  0.0000000000      0.5020800000       3
     6099  6097  6095  6096    1  0.0000000000      0.5439200000       3
     6095  6097  6087  6086    1  0.0000000000      0.6508444444       3
     6095  6097  6087  6088    1  0.0000000000      0.5439200000       3
     6095  6097  6087  6089    1  0.0000000000      2.1756800000       3
     6098  6097  6095  4401    1  0.0000000000      0.6508444444       3
     6099  6097  6095  4401    1  0.0000000000      0.6508444444       3
     6087  6097  6095  4401    1  0.0000000000      0.6508444444       3
     5761  5762  5764  5765    1  180.0000000000    15.1670000000      2
     5761  5762  5764  5794    1  180.0000000000    15.1670000000      2
     5763  5762  5764  5765    1  180.0000000000    15.1670000000      2
     5763  5762  5764  5794    1  180.0000000000    15.1670000000      2
     5773  5782  5783  5784    1  0.0000000000      0.0000000000       2
     5773  5782  5783  5785    1  0.0000000000      0.0000000000       2
     5773  5782  5783  5786    1  0.0000000000      0.0000000000       2
     5781  5782  5773  5771    1  180.0000000000    15.1670000000      2
     5783  5782  5781  5780    1  180.0000000000    15.1670000000      2
     5783  5782  5781  575     1  180.0000000000    15.1670000000      2
     5773  5782  5781  575     1  180.0000000000    15.1670000000      2
     5767  5769  5771  5772    1  0.0000000000      0.5439200000       3
     5767  5769  5771  5773    1  0.0000000000      0.6508444444       3
     5767  5769  5771  5787    1  0.0000000000      2.1756800000       3
     5770  5769  5771  5772    1  0.0000000000      0.5020800000       3
     5770  5769  5771  5773    1  0.0000000000      0.6508444444       3
     5770  5769  5771  5787    1  0.0000000000      0.5439200000       3
     5791  5769  5771  5772    1  0.0000000000      0.5439200000       3
     5791  5769  5771  5773    1  0.0000000000      0.6508444444       3
     5791  5769  5771  5787    1  0.0000000000      2.1756800000       3
     5767  5769  5791  5789    1  0.0000000000      0.6508444444       3
     5767  5769  5791  5792    1  0.0000000000      0.6508444444       3
     5767  5769  5791  5793    1  0.0000000000      0.6508444444       3
     5770  5769  5791  5789    1  0.0000000000      0.5439200000       3
     5770  5769  5791  5792    1  0.0000000000      0.5020800000       3
     5770  5769  5791  5793    1  0.0000000000      0.5020800000       3
     5771  5769  5791  5789    1  0.0000000000      0.6508444444       3
     5771  5769  5791  5792    1  0.0000000000      0.6508444444       3
     5771  5769  5791  5793    1  0.0000000000      0.6508444444       3
     5732  5737  5738  5739    1  180.0000000000    15.1670000000      2
     5732  5737  5738  5760    1  180.0000000000    15.1670000000      2
     5758  5737  5738  5739    1  180.0000000000    15.1670000000      2
     5758  5737  5738  5760    1  180.0000000000    15.1670000000      2
     5732  5737  5758  5757    1  180.0000000000    15.1670000000      2
     5732  5737  5758  5759    1  180.0000000000    15.1670000000      2
     5738  5737  5758  5757    1  180.0000000000    15.1670000000      2
     5738  5737  5758  5759    1  180.0000000000    15.1670000000      2
     5769  5771  5773  5774    1  180.0000000000    1.0041600000       2
     5769  5771  5773  5782    1  180.0000000000    1.0041600000       2
     5772  5771  5773  5774    1  0.0000000000      0.0000000000       1
     5772  5771  5773  5782    1  0.0000000000      0.0000000000       1
     5787  5771  5773  5774    1  180.0000000000    1.0041600000       2
     5787  5771  5773  5782    1  180.0000000000    1.0041600000       2
     5769  5771  5787  5774    1  0.0000000000      0.6508444444       3
     5769  5771  5787  5788    1  0.0000000000      0.6508444444       3
     5769  5771  5787  5789    1  0.0000000000      0.6508444444       3
     5772  5771  5787  5774    1  0.0000000000      0.6508444444       3
     5772  5771  5787  5788    1  0.0000000000      0.6508444444       3
     5772  5771  5787  5789    1  0.0000000000      0.6508444444       3
     5773  5771  5787  5774    1  0.0000000000      0.6508444444       3
     5773  5771  5787  5788    1  0.0000000000      0.6508444444       3
     5773  5771  5787  5789    1  0.0000000000      0.6508444444       3
     5762  5764  5765  5766    1  0.0000000000      0.0000000000       1
     5762  5764  5765  5767    1  180.0000000000    1.0041600000       2
     5762  5764  5765  5789    1  180.0000000000    1.0041600000       2
     5794  5764  5765  5766    1  0.0000000000      0.0000000000       1
     5794  5764  5765  5767    1  180.0000000000    1.0041600000       2
     5794  5764  5765  5789    1  180.0000000000    1.0041600000       2
     5762  5764  5794  5767    1  180.0000000000    15.1670000000      2
     5762  5764  5794  5795    1  180.0000000000    15.1670000000      2
     5765  5764  5794  5767    1  180.0000000000    15.1670000000      2
     5765  5764  5794  5795    1  180.0000000000    15.1670000000      2
     5775  5780  5781  5782    1  180.0000000000    15.1670000000      2
     5775  5780  5781  575     1  180.0000000000    15.1670000000      2
     5781  5780  573   574     1  0.0000000000      0.0000000000       1
     5775  5780  573   574     1  0.0000000000      0.0000000000       1
     5781  5780  573   575     1  180.0000000000    1.0041600000       2
     5775  5780  573   575     1  180.0000000000    1.0041600000       2
     5781  5780  573   571     1  180.0000000000    1.0041600000       2
     5775  5780  573   571     1  180.0000000000    1.0041600000       2
     4197  4196  4195  4194    1  0.0000000000      0.0000000000       2
     4198  4196  4195  4194    1  0.0000000000      0.0000000000       2
     4199  4196  4195  4194    1  0.0000000000      0.0000000000       2
     5771  5773  5774  5775    1  180.0000000000    15.1670000000      2
     5771  5773  5774  5787    1  180.0000000000    15.1670000000      2
     5782  5773  5774  5775    1  180.0000000000    15.1670000000      2
     5782  5773  5774  5787    1  180.0000000000    15.1670000000      2
     5771  5773  5782  5783    1  180.0000000000    15.1670000000      2
     5774  5773  5782  5781    1  180.0000000000    15.1670000000      2
     5774  5773  5782  5783    1  180.0000000000    15.1670000000      2
     5738  5760  5761  5732    1  180.0000000000    15.1670000000      2
     5738  5760  5761  5762    1  180.0000000000    15.1670000000      2
     5795  5760  5761  5732    1  180.0000000000    15.1670000000      2
     5795  5760  5761  5762    1  180.0000000000    15.1670000000      2
     5738  5760  5795  5794    1  180.0000000000    15.1670000000      2
     5738  5760  5795  5796    1  180.0000000000    15.1670000000      2
     5761  5760  5795  5794    1  180.0000000000    15.1670000000      2
     5761  5760  5795  5796    1  180.0000000000    15.1670000000      2
     2772  2774  2775  2776    1  0.0000000000      0.0000000000       1
     2772  2774  2775  2777    1  180.0000000000    1.0041600000       2
     2772  2774  2775  2785    1  180.0000000000    1.0041600000       2
     2790  2774  2775  2776    1  0.0000000000      0.0000000000       1
     2790  2774  2775  2777    1  180.0000000000    1.0041600000       2
     2790  2774  2775  2785    1  180.0000000000    1.0041600000       2
     2772  2774  2790  2777    1  180.0000000000    15.1670000000      2
     2772  2774  2790  2791    1  180.0000000000    15.1670000000      2
     2775  2774  2790  2777    1  180.0000000000    15.1670000000      2
     2775  2774  2790  2791    1  180.0000000000    15.1670000000      2
     5780  5781  5782  5773    1  180.0000000000    15.1670000000      2
     575   5781  5780  573     1  180.0000000000    15.1670000000      2
     5782  5781  575   576     1  0.0000000000      0.0000000000       1
     5780  5781  575   576     1  0.0000000000      0.0000000000       1
     5782  5781  575   577     1  180.0000000000    1.0041600000       2
     5780  5781  575   577     1  180.0000000000    1.0041600000       2
     5782  5781  575   573     1  180.0000000000    1.0041600000       2
     5780  5781  575   573     1  180.0000000000    1.0041600000       2
     5782  5781  5780  573     1  180.0000000000    15.1670000000      2
     2771  2772  2774  2775    1  180.0000000000    15.1670000000      2
     2771  2772  2774  2790    1  180.0000000000    15.1670000000      2
     2773  2772  2774  2775    1  180.0000000000    15.1670000000      2
     2773  2772  2774  2790    1  180.0000000000    15.1670000000      2
     5780  5775  5774  5787    1  180.0000000000    15.1670000000      2
     5774  5775  5776  5777    1  0.0000000000      0.0000000000       2
     5774  5775  5776  5778    1  0.0000000000      0.0000000000       2
     5774  5775  5776  5779    1  0.0000000000      0.0000000000       2
     5774  5775  5780  5781    1  180.0000000000    15.1670000000      2
     5776  5775  5780  5781    1  180.0000000000    15.1670000000      2
     5774  5775  5780  573     1  180.0000000000    15.1670000000      2
     5776  5775  5780  573     1  180.0000000000    15.1670000000      2
     2775  2785  2783  2781    1  0.0000000000      2.1756800000       3
     2786  2785  2783  2781    1  0.0000000000      0.5439200000       3
     2787  2785  2783  2781    1  0.0000000000      2.1756800000       3
     2775  2785  2783  2784    1  0.0000000000      0.5439200000       3
     2786  2785  2783  2784    1  0.0000000000      0.5020800000       3
     2787  2785  2783  2784    1  0.0000000000      0.5439200000       3
     2783  2785  2775  2774    1  0.0000000000      0.6508444444       3
     2783  2785  2775  2776    1  0.0000000000      0.5439200000       3
     2783  2785  2775  2777    1  0.0000000000      2.1756800000       3
     2775  2785  2787  2779    1  0.0000000000      0.6508444444       3
     2775  2785  2787  2788    1  0.0000000000      0.6508444444       3
     2775  2785  2787  2789    1  0.0000000000      0.6508444444       3
     2783  2785  2787  2788    1  0.0000000000      0.6508444444       3
     2783  2785  2787  2789    1  0.0000000000      0.6508444444       3
     2786  2785  2787  2779    1  0.0000000000      0.5439200000       3
     2786  2785  2787  2788    1  0.0000000000      0.5020800000       3
     2786  2785  2787  2789    1  0.0000000000      0.5020800000       3
     2775  2785  2783  4194    1  0.0000000000      0.6508444444       3
     2786  2785  2783  4194    1  0.0000000000      0.6508444444       3
     2787  2785  2783  4194    1  0.0000000000      0.6508444444       3
     5764  5794  5795  5760    1  180.0000000000    15.1670000000      2
     5764  5794  5795  5796    1  180.0000000000    15.1670000000      2
     5767  5794  5795  5760    1  180.0000000000    15.1670000000      2
     5767  5794  5795  5796    1  180.0000000000    15.1670000000      2
     5737  5738  5739  5740    1  180.0000000000    15.1670000000      2
     5737  5738  5739  5741    1  180.0000000000    15.1670000000      2
     5760  5738  5739  5740    1  180.0000000000    15.1670000000      2
     5760  5738  5739  5741    1  180.0000000000    15.1670000000      2
     5737  5738  5760  5761    1  180.0000000000    4.1840000000       2
     5737  5738  5760  5795    1  180.0000000000    4.1840000000       2
     5739  5738  5760  5761    1  180.0000000000    4.1840000000       2
     5739  5738  5760  5795    1  180.0000000000    4.1840000000       2
     5728  5732  5733  5734    1  0.0000000000      0.5439200000       3
     5728  5732  5733  5735    1  0.0000000000      0.5439200000       3
     5728  5732  5733  5736    1  0.0000000000      0.5439200000       3
     5737  5732  5733  5734    1  0.0000000000      0.6508444444       3
     5737  5732  5733  5735    1  0.0000000000      0.6508444444       3
     5737  5732  5733  5736    1  0.0000000000      0.6508444444       3
     5761  5732  5733  5734    1  0.0000000000      0.6508444444       3
     5761  5732  5733  5735    1  0.0000000000      0.6508444444       3
     5761  5732  5733  5736    1  0.0000000000      0.6508444444       3
     5728  5732  5737  5738    1  0.0000000000      0.0000000000       2
     5728  5732  5737  5758    1  180.0000000000    1.0041600000       2
     5733  5732  5737  5738    1  0.0000000000      0.0000000000       2
     5733  5732  5737  5758    1  180.0000000000    1.0041600000       2
     5761  5732  5737  5738    1  0.0000000000      0.0000000000       2
     5761  5732  5737  5758    1  180.0000000000    0.0000000000       2
     5728  5732  5761  5760    1  0.0000000000      0.0000000000       2
     5728  5732  5761  5762    1  180.0000000000    1.0041600000       2
     5733  5732  5761  5760    1  0.0000000000      0.0000000000       2
     5733  5732  5761  5762    1  180.0000000000    1.0041600000       2
     5737  5732  5761  5760    1  0.0000000000      0.0000000000       2
     5737  5732  5761  5762    1  180.0000000000    0.0000000000       2
     5773  5774  5775  5776    1  180.0000000000    15.1670000000      2
     5773  5774  5775  5780    1  180.0000000000    15.1670000000      2
     5787  5774  5775  5776    1  180.0000000000    15.1670000000      2
     5773  5774  5787  5771    1  180.0000000000    1.0041600000       2
     5773  5774  5787  5788    1  0.0000000000      0.0000000000       1
     5773  5774  5787  5789    1  180.0000000000    1.0041600000       2
     5775  5774  5787  5771    1  180.0000000000    1.0041600000       2
     5775  5774  5787  5788    1  0.0000000000      0.0000000000       1
     5775  5774  5787  5789    1  180.0000000000    1.0041600000       2
     1092  1091  1090  1089    1  0.0000000000      0.0000000000       2
     1093  1091  1090  1089    1  0.0000000000      0.0000000000       2
     1094  1091  1090  1089    1  0.0000000000      0.0000000000       2
     5729  5728  5732  5733    1  0.0000000000      0.5439200000       3
     5729  5728  5732  5737    1  0.0000000000      0.6508444444       3
     5729  5728  5732  5761    1  0.0000000000      0.6508444444       3
     5730  5728  5732  5733    1  0.0000000000      0.5439200000       3
     5730  5728  5732  5737    1  0.0000000000      0.6508444444       3
     5730  5728  5732  5761    1  0.0000000000      0.6508444444       3
     5731  5728  5732  5733    1  0.0000000000      0.5439200000       3
     5731  5728  5732  5737    1  0.0000000000      0.6508444444       3
     5731  5728  5732  5761    1  0.0000000000      0.6508444444       3
     5764  5765  5767  5768    1  0.0000000000      0.6508444444       3
     5764  5765  5767  5769    1  0.0000000000      0.6508444444       3
     5764  5765  5767  5794    1  0.0000000000      0.6508444444       3
     5766  5765  5767  5768    1  0.0000000000      0.6508444444       3
     5766  5765  5767  5769    1  0.0000000000      0.6508444444       3
     5766  5765  5767  5794    1  0.0000000000      0.6508444444       3
     5789  5765  5767  5768    1  0.0000000000      0.6508444444       3
     5789  5765  5767  5769    1  0.0000000000      0.6508444444       3
     5789  5765  5767  5794    1  0.0000000000      0.6508444444       3
     5764  5765  5789  5787    1  0.0000000000      0.6508444444       3
     5764  5765  5789  5790    1  0.0000000000      0.6508444444       3
     5764  5765  5789  5791    1  0.0000000000      0.6508444444       3
     5766  5765  5789  5787    1  0.0000000000      0.5439200000       3
     5766  5765  5789  5790    1  0.0000000000      0.5020800000       3
     5766  5765  5789  5791    1  0.0000000000      0.5439200000       3
     5767  5765  5789  5787    1  0.0000000000      2.1756800000       3
     5767  5765  5789  5790    1  0.0000000000      0.5439200000       3
     5767  5765  5789  5791    1  0.0000000000      2.1756800000       3
     5765  5767  5769  5770    1  0.0000000000      0.5439200000       3
     5765  5767  5769  5771    1  0.0000000000      2.1756800000       3
     5765  5767  5769  5791    1  0.0000000000      2.1756800000       3
     5768  5767  5769  5770    1  0.0000000000      0.5020800000       3
     5768  5767  5769  5771    1  0.0000000000      0.5439200000       3
     5768  5767  5769  5791    1  0.0000000000      0.5439200000       3
     5794  5767  5769  5770    1  0.0000000000      0.6508444444       3
     5794  5767  5769  5771    1  0.0000000000      0.6508444444       3
     5794  5767  5769  5791    1  0.0000000000      0.6508444444       3
     5765  5767  5794  5764    1  180.0000000000    1.0041600000       2
     5765  5767  5794  5795    1  180.0000000000    1.0041600000       2
     5768  5767  5794  5764    1  0.0000000000      0.0000000000       1
     5768  5767  5794  5795    1  0.0000000000      0.0000000000       1
     5769  5767  5794  5764    1  180.0000000000    1.0041600000       2
     5769  5767  5794  5795    1  180.0000000000    1.0041600000       2
     6086  6087  6089  6090    1  0.0000000000      0.6508444444       3
     6086  6087  6089  6091    1  0.0000000000      0.6508444444       3
     6086  6087  6089  6102    1  0.0000000000      0.6508444444       3
     6088  6087  6089  6090    1  0.0000000000      0.6508444444       3
     6088  6087  6089  6091    1  0.0000000000      0.6508444444       3
     6088  6087  6089  6102    1  0.0000000000      0.6508444444       3
     6097  6087  6089  6090    1  0.0000000000      0.6508444444       3
     6097  6087  6089  6091    1  0.0000000000      0.6508444444       3
     6097  6087  6089  6102    1  0.0000000000      0.6508444444       3
     6086  6087  6097  6098    1  0.0000000000      0.6508444444       3
     6086  6087  6097  6099    1  0.0000000000      0.6508444444       3
     6088  6087  6097  6098    1  0.0000000000      0.5020800000       3
     6088  6087  6097  6099    1  0.0000000000      0.5439200000       3
     6089  6087  6097  6098    1  0.0000000000      0.5439200000       3
     6089  6087  6097  6099    1  0.0000000000      2.1756800000       3
     6316  6317  6319  6320    1  0.0000000000      0.6508444444       3
     6316  6317  6319  6321    1  0.0000000000      0.6508444444       3
     6316  6317  6319  6346    1  0.0000000000      0.6508444444       3
     6318  6317  6319  6320    1  0.0000000000      0.6508444444       3
     6318  6317  6319  6321    1  0.0000000000      0.6508444444       3
     6318  6317  6319  6346    1  0.0000000000      0.6508444444       3
     6341  6317  6319  6320    1  0.0000000000      0.6508444444       3
     6341  6317  6319  6321    1  0.0000000000      0.6508444444       3
     6341  6317  6319  6346    1  0.0000000000      0.6508444444       3
     6316  6317  6341  6339    1  0.0000000000      0.6508444444       3
     6316  6317  6341  6342    1  0.0000000000      0.6508444444       3
     6316  6317  6341  6343    1  0.0000000000      0.6508444444       3
     6318  6317  6341  6339    1  0.0000000000      0.5439200000       3
     6318  6317  6341  6342    1  0.0000000000      0.5020800000       3
     6318  6317  6341  6343    1  0.0000000000      0.5439200000       3
     6319  6317  6341  6339    1  0.0000000000      2.1756800000       3
     6319  6317  6341  6342    1  0.0000000000      0.5439200000       3
     6319  6317  6341  6343    1  0.0000000000      2.1756800000       3
     5255  5277  5278  5249    1  180.0000000000    15.1670000000      2
     5255  5277  5278  5279    1  180.0000000000    15.1670000000      2
     5312  5277  5278  5249    1  180.0000000000    15.1670000000      2
     5312  5277  5278  5279    1  180.0000000000    15.1670000000      2
     5255  5277  5312  5311    1  180.0000000000    15.1670000000      2
     5255  5277  5312  5313    1  180.0000000000    15.1670000000      2
     5278  5277  5312  5311    1  180.0000000000    15.1670000000      2
     5278  5277  5312  5313    1  180.0000000000    15.1670000000      2
     796   826   827   792     1  180.0000000000    15.1670000000      2
     796   826   827   828     1  180.0000000000    15.1670000000      2
     799   826   827   792     1  180.0000000000    15.1670000000      2
     799   826   827   828     1  180.0000000000    15.1670000000      2
     1054  1056  1058  1059    1  0.0000000000      0.6508444444       3
     1054  1056  1058  1060    1  0.0000000000      0.6508444444       3
     1057  1056  1058  1059    1  0.0000000000      0.6508444444       3
     2883  1056  1058  1059    1  0.0000000000      0.6508444444       3
     2883  1056  1058  2882    1  0.0000000000      0.6508444444       3
     1054  1056  1058  2882    1  0.0000000000      0.6508444444       3
     1050  1052  1054  1055    1  0.0000000000      0.5439200000       3
     1050  1052  1054  1062    1  0.0000000000      2.1756800000       3
     1053  1052  1054  1055    1  0.0000000000      0.5020800000       3
     1053  1052  1054  1062    1  0.0000000000      0.5439200000       3
     1065  1052  1054  1055    1  0.0000000000      0.6508444444       3
     1065  1052  1054  1062    1  0.0000000000      0.6508444444       3
     1050  1052  1065  1049    1  180.0000000000    1.0041600000       2
     1050  1052  1065  1066    1  180.0000000000    1.0041600000       2
     1053  1052  1065  1049    1  0.0000000000      0.0000000000       1
     1053  1052  1065  1066    1  0.0000000000      0.0000000000       1
     1054  1052  1065  1049    1  180.0000000000    1.0041600000       2
     1054  1052  1065  1066    1  180.0000000000    1.0041600000       2
     1049  1065  1066  1045    1  180.0000000000    15.1670000000      2
     1049  1065  1066  1067    1  180.0000000000    15.1670000000      2
     1052  1065  1066  1045    1  180.0000000000    15.1670000000      2
     1052  1065  1066  1067    1  180.0000000000    15.1670000000      2
     803   819   821   797     1  0.0000000000      2.1756800000       3
     803   819   821   822     1  0.0000000000      0.5439200000       3
     803   819   821   823     1  0.0000000000      2.1756800000       3
     806   819   821   797     1  0.0000000000      0.6508444444       3
     806   819   821   822     1  0.0000000000      0.6508444444       3
     806   819   821   823     1  0.0000000000      0.6508444444       3
     820   819   821   797     1  0.0000000000      0.5439200000       3
     820   819   821   822     1  0.0000000000      0.5020800000       3
     820   819   821   823     1  0.0000000000      0.5439200000       3
     1047  1049  1050  1051    1  0.0000000000      0.0000000000       1
     1047  1049  1050  1052    1  180.0000000000    1.0041600000       2
     1047  1049  1050  1060    1  180.0000000000    1.0041600000       2
     1065  1049  1050  1051    1  0.0000000000      0.0000000000       1
     1065  1049  1050  1052    1  180.0000000000    1.0041600000       2
     1065  1049  1050  1060    1  180.0000000000    1.0041600000       2
     1047  1049  1065  1052    1  180.0000000000    15.1670000000      2
     1047  1049  1065  1066    1  180.0000000000    15.1670000000      2
     1050  1049  1065  1052    1  180.0000000000    15.1670000000      2
     1050  1049  1065  1066    1  180.0000000000    15.1670000000      2
     801   803   805   806     1  180.0000000000    1.0041600000       2
     801   803   805   814     1  180.0000000000    1.0041600000       2
     804   803   805   806     1  0.0000000000      0.0000000000       1
     804   803   805   814     1  0.0000000000      0.0000000000       1
     819   803   805   806     1  180.0000000000    1.0041600000       2
     819   803   805   814     1  180.0000000000    1.0041600000       2
     801   803   819   806     1  0.0000000000      0.6508444444       3
     801   803   819   820     1  0.0000000000      0.6508444444       3
     801   803   819   821     1  0.0000000000      0.6508444444       3
     804   803   819   806     1  0.0000000000      0.6508444444       3
     804   803   819   820     1  0.0000000000      0.6508444444       3
     804   803   819   821     1  0.0000000000      0.6508444444       3
     805   803   819   806     1  0.0000000000      0.6508444444       3
     805   803   819   820     1  0.0000000000      0.6508444444       3
     805   803   819   821     1  0.0000000000      0.6508444444       3
     805   806   807   808     1  180.0000000000    15.1670000000      2
     805   806   807   812     1  180.0000000000    15.1670000000      2
     819   806   807   808     1  180.0000000000    15.1670000000      2
     805   806   819   803     1  180.0000000000    1.0041600000       2
     805   806   819   820     1  0.0000000000      0.0000000000       1
     805   806   819   821     1  180.0000000000    1.0041600000       2
     807   806   819   803     1  180.0000000000    1.0041600000       2
     807   806   819   820     1  0.0000000000      0.0000000000       1
     807   806   819   821     1  180.0000000000    1.0041600000       2
     764   793   794   795     1  180.0000000000    15.1670000000      2
     764   793   794   796     1  180.0000000000    15.1670000000      2
     792   793   794   795     1  180.0000000000    15.1670000000      2
     792   793   794   796     1  180.0000000000    15.1670000000      2
     770   792   793   764     1  180.0000000000    15.1670000000      2
     770   792   793   794     1  180.0000000000    15.1670000000      2
     827   792   793   764     1  180.0000000000    15.1670000000      2
     827   792   793   794     1  180.0000000000    15.1670000000      2
     770   792   827   826     1  180.0000000000    15.1670000000      2
     770   792   827   828     1  180.0000000000    15.1670000000      2
     793   792   827   826     1  180.0000000000    15.1670000000      2
     793   792   827   828     1  180.0000000000    15.1670000000      2
     794   796   797   798     1  0.0000000000      0.0000000000       1
     794   796   797   799     1  180.0000000000    1.0041600000       2
     794   796   797   821     1  180.0000000000    1.0041600000       2
     826   796   797   798     1  0.0000000000      0.0000000000       1
     826   796   797   799     1  180.0000000000    1.0041600000       2
     826   796   797   821     1  180.0000000000    1.0041600000       2
     794   796   826   799     1  180.0000000000    15.1670000000      2
     794   796   826   827     1  180.0000000000    15.1670000000      2
     797   796   826   799     1  180.0000000000    15.1670000000      2
     797   796   826   827     1  180.0000000000    15.1670000000      2
     793   794   796   797     1  180.0000000000    15.1670000000      2
     793   794   796   826     1  180.0000000000    15.1670000000      2
     795   794   796   797     1  180.0000000000    15.1670000000      2
     795   794   796   826     1  180.0000000000    15.1670000000      2
     799   801   803   804     1  0.0000000000      0.5439200000       3
     799   801   803   805     1  0.0000000000      0.6508444444       3
     799   801   803   819     1  0.0000000000      2.1756800000       3
     802   801   803   804     1  0.0000000000      0.5020800000       3
     802   801   803   805     1  0.0000000000      0.6508444444       3
     802   801   803   819     1  0.0000000000      0.5439200000       3
     823   801   803   804     1  0.0000000000      0.5439200000       3
     823   801   803   805     1  0.0000000000      0.6508444444       3
     823   801   803   819     1  0.0000000000      2.1756800000       3
     799   801   823   821     1  0.0000000000      0.6508444444       3
     799   801   823   824     1  0.0000000000      0.6508444444       3
     799   801   823   825     1  0.0000000000      0.6508444444       3
     802   801   823   821     1  0.0000000000      0.5439200000       3
     802   801   823   824     1  0.0000000000      0.5020800000       3
     802   801   823   825     1  0.0000000000      0.5020800000       3
     803   801   823   821     1  0.0000000000      0.6508444444       3
     803   801   823   824     1  0.0000000000      0.6508444444       3
     803   801   823   825     1  0.0000000000      0.6508444444       3
     797   799   801   802     1  0.0000000000      0.5439200000       3
     797   799   801   803     1  0.0000000000      2.1756800000       3
     797   799   801   823     1  0.0000000000      2.1756800000       3
     800   799   801   802     1  0.0000000000      0.5020800000       3
     800   799   801   803     1  0.0000000000      0.5439200000       3
     800   799   801   823     1  0.0000000000      0.5439200000       3
     826   799   801   802     1  0.0000000000      0.6508444444       3
     826   799   801   803     1  0.0000000000      0.6508444444       3
     826   799   801   823     1  0.0000000000      0.6508444444       3
     797   799   826   796     1  180.0000000000    1.0041600000       2
     797   799   826   827     1  180.0000000000    1.0041600000       2
     800   799   826   796     1  0.0000000000      0.0000000000       1
     800   799   826   827     1  0.0000000000      0.0000000000       1
     801   799   826   796     1  180.0000000000    1.0041600000       2
     801   799   826   827     1  180.0000000000    1.0041600000       2
     1049  1050  1052  1053    1  0.0000000000      0.6508444444       3
     1049  1050  1052  1054    1  0.0000000000      0.6508444444       3
     1049  1050  1052  1065    1  0.0000000000      0.6508444444       3
     1051  1050  1052  1053    1  0.0000000000      0.6508444444       3
     1051  1050  1052  1054    1  0.0000000000      0.6508444444       3
     1051  1050  1052  1065    1  0.0000000000      0.6508444444       3
     1060  1050  1052  1053    1  0.0000000000      0.6508444444       3
     1060  1050  1052  1054    1  0.0000000000      0.6508444444       3
     1060  1050  1052  1065    1  0.0000000000      0.6508444444       3
     1049  1050  1060  1061    1  0.0000000000      0.6508444444       3
     1049  1050  1060  1062    1  0.0000000000      0.6508444444       3
     1051  1050  1060  1061    1  0.0000000000      0.5020800000       3
     1051  1050  1060  1062    1  0.0000000000      0.5439200000       3
     1052  1050  1060  1061    1  0.0000000000      0.5439200000       3
     1052  1050  1060  1062    1  0.0000000000      2.1756800000       3
     803   805   806   807     1  180.0000000000    15.1670000000      2
     803   805   806   819     1  180.0000000000    15.1670000000      2
     814   805   806   807     1  180.0000000000    15.1670000000      2
     814   805   806   819     1  180.0000000000    15.1670000000      2
     803   805   814   815     1  180.0000000000    15.1670000000      2
     806   805   814   813     1  180.0000000000    15.1670000000      2
     806   805   814   815     1  180.0000000000    15.1670000000      2
     3967  3968  3970  3971    1  180.0000000000    15.1670000000      2
     3967  3968  3970  4000    1  180.0000000000    15.1670000000      2
     3969  3968  3970  3971    1  180.0000000000    15.1670000000      2
     3969  3968  3970  4000    1  180.0000000000    15.1670000000      2
     3968  3970  3971  3972    1  0.0000000000      0.0000000000       1
     3968  3970  3971  3973    1  180.0000000000    1.0041600000       2
     3968  3970  3971  3995    1  180.0000000000    1.0041600000       2
     4000  3970  3971  3972    1  0.0000000000      0.0000000000       1
     4000  3970  3971  3973    1  180.0000000000    1.0041600000       2
     4000  3970  3971  3995    1  180.0000000000    1.0041600000       2
     3968  3970  4000  3973    1  180.0000000000    15.1670000000      2
     3968  3970  4000  4001    1  180.0000000000    15.1670000000      2
     3971  3970  4000  3973    1  180.0000000000    15.1670000000      2
     3971  3970  4000  4001    1  180.0000000000    15.1670000000      2
     2591  2593  2595  2596    1  0.0000000000      0.5439200000       3
     2591  2593  2595  2597    1  0.0000000000      2.1756800000       3
     2591  2593  2595  2617    1  0.0000000000      2.1756800000       3
     2594  2593  2595  2596    1  0.0000000000      0.5020800000       3
     2594  2593  2595  2597    1  0.0000000000      0.5439200000       3
     2594  2593  2595  2617    1  0.0000000000      0.5439200000       3
     2620  2593  2595  2596    1  0.0000000000      0.6508444444       3
     2620  2593  2595  2597    1  0.0000000000      0.6508444444       3
     2620  2593  2595  2617    1  0.0000000000      0.6508444444       3
     2591  2593  2620  2590    1  180.0000000000    1.0041600000       2
     2591  2593  2620  2621    1  180.0000000000    1.0041600000       2
     2594  2593  2620  2590    1  0.0000000000      0.0000000000       1
     2594  2593  2620  2621    1  0.0000000000      0.0000000000       1
     2595  2593  2620  2590    1  180.0000000000    1.0041600000       2
     2595  2593  2620  2621    1  180.0000000000    1.0041600000       2
     3938  3967  3968  3969    1  180.0000000000    15.1670000000      2
     3938  3967  3968  3970    1  180.0000000000    15.1670000000      2
     3966  3967  3968  3969    1  180.0000000000    15.1670000000      2
     3966  3967  3968  3970    1  180.0000000000    15.1670000000      2
     761   760   764   765     1  0.0000000000      0.5439200000       3
     761   760   764   769     1  0.0000000000      0.6508444444       3
     761   760   764   793     1  0.0000000000      0.6508444444       3
     762   760   764   765     1  0.0000000000      0.5439200000       3
     762   760   764   769     1  0.0000000000      0.6508444444       3
     762   760   764   793     1  0.0000000000      0.6508444444       3
     763   760   764   765     1  0.0000000000      0.5439200000       3
     763   760   764   769     1  0.0000000000      0.6508444444       3
     763   760   764   793     1  0.0000000000      0.6508444444       3
     1046  1047  1049  1050    1  180.0000000000    15.1670000000      2
     1046  1047  1049  1065    1  180.0000000000    15.1670000000      2
     1048  1047  1049  1050    1  180.0000000000    15.1670000000      2
     1048  1047  1049  1065    1  180.0000000000    15.1670000000      2
     1037  1036  1040  1041    1  0.0000000000      0.5439200000       3
     1037  1036  1040  1045    1  0.0000000000      0.6508444444       3
     1037  1036  1040  1069    1  0.0000000000      0.6508444444       3
     1038  1036  1040  1041    1  0.0000000000      0.5439200000       3
     1038  1036  1040  1045    1  0.0000000000      0.6508444444       3
     1038  1036  1040  1069    1  0.0000000000      0.6508444444       3
     1039  1036  1040  1041    1  0.0000000000      0.5439200000       3
     1039  1036  1040  1045    1  0.0000000000      0.6508444444       3
     1039  1036  1040  1069    1  0.0000000000      0.6508444444       3
     797   821   823   801     1  0.0000000000      0.6508444444       3
     797   821   823   824     1  0.0000000000      0.6508444444       3
     797   821   823   825     1  0.0000000000      0.6508444444       3
     819   821   823   801     1  0.0000000000      0.6508444444       3
     819   821   823   824     1  0.0000000000      0.6508444444       3
     819   821   823   825     1  0.0000000000      0.6508444444       3
     822   821   823   801     1  0.0000000000      0.5439200000       3
     822   821   823   824     1  0.0000000000      0.5020800000       3
     822   821   823   825     1  0.0000000000      0.5020800000       3
     2593  2595  2597  2598    1  0.0000000000      0.5439200000       3
     2593  2595  2597  2599    1  0.0000000000      0.6508444444       3
     2593  2595  2597  2613    1  0.0000000000      2.1756800000       3
     2596  2595  2597  2598    1  0.0000000000      0.5020800000       3
     2596  2595  2597  2599    1  0.0000000000      0.6508444444       3
     2596  2595  2597  2613    1  0.0000000000      0.5439200000       3
     2617  2595  2597  2598    1  0.0000000000      0.5439200000       3
     2617  2595  2597  2599    1  0.0000000000      0.6508444444       3
     2617  2595  2597  2613    1  0.0000000000      2.1756800000       3
     2593  2595  2617  2615    1  0.0000000000      0.6508444444       3
     2593  2595  2617  2618    1  0.0000000000      0.6508444444       3
     2593  2595  2617  2619    1  0.0000000000      0.6508444444       3
     2596  2595  2617  2615    1  0.0000000000      0.5439200000       3
     2596  2595  2617  2618    1  0.0000000000      0.5020800000       3
     2596  2595  2617  2619    1  0.0000000000      0.5020800000       3
     2597  2595  2617  2615    1  0.0000000000      0.6508444444       3
     2597  2595  2617  2618    1  0.0000000000      0.6508444444       3
     2597  2595  2617  2619    1  0.0000000000      0.6508444444       3
     3970  3971  3973  3974    1  0.0000000000      0.6508444444       3
     3970  3971  3973  3975    1  0.0000000000      0.6508444444       3
     3970  3971  3973  4000    1  0.0000000000      0.6508444444       3
     3972  3971  3973  3974    1  0.0000000000      0.6508444444       3
     3972  3971  3973  3975    1  0.0000000000      0.6508444444       3
     3972  3971  3973  4000    1  0.0000000000      0.6508444444       3
     3995  3971  3973  3974    1  0.0000000000      0.6508444444       3
     3995  3971  3973  3975    1  0.0000000000      0.6508444444       3
     3995  3971  3973  4000    1  0.0000000000      0.6508444444       3
     3970  3971  3995  3993    1  0.0000000000      0.6508444444       3
     3970  3971  3995  3996    1  0.0000000000      0.6508444444       3
     3970  3971  3995  3997    1  0.0000000000      0.6508444444       3
     3972  3971  3995  3993    1  0.0000000000      0.5439200000       3
     3972  3971  3995  3996    1  0.0000000000      0.5020800000       3
     3972  3971  3995  3997    1  0.0000000000      0.5439200000       3
     3973  3971  3995  3993    1  0.0000000000      2.1756800000       3
     3973  3971  3995  3996    1  0.0000000000      0.5439200000       3
     3973  3971  3995  3997    1  0.0000000000      2.1756800000       3
     796   797   799   800     1  0.0000000000      0.6508444444       3
     796   797   799   801     1  0.0000000000      0.6508444444       3
     796   797   799   826     1  0.0000000000      0.6508444444       3
     798   797   799   800     1  0.0000000000      0.6508444444       3
     798   797   799   801     1  0.0000000000      0.6508444444       3
     798   797   799   826     1  0.0000000000      0.6508444444       3
     821   797   799   800     1  0.0000000000      0.6508444444       3
     821   797   799   801     1  0.0000000000      0.6508444444       3
     821   797   799   826     1  0.0000000000      0.6508444444       3
     796   797   821   819     1  0.0000000000      0.6508444444       3
     796   797   821   822     1  0.0000000000      0.6508444444       3
     796   797   821   823     1  0.0000000000      0.6508444444       3
     798   797   821   819     1  0.0000000000      0.5439200000       3
     798   797   821   822     1  0.0000000000      0.5020800000       3
     798   797   821   823     1  0.0000000000      0.5439200000       3
     799   797   821   819     1  0.0000000000      2.1756800000       3
     799   797   821   822     1  0.0000000000      0.5439200000       3
     799   797   821   823     1  0.0000000000      2.1756800000       3
     1040  1045  1046  1047    1  180.0000000000    15.1670000000      2
     1040  1045  1046  1068    1  180.0000000000    15.1670000000      2
     1066  1045  1046  1047    1  180.0000000000    15.1670000000      2
     1066  1045  1046  1068    1  180.0000000000    15.1670000000      2
     1040  1045  1066  1065    1  180.0000000000    15.1670000000      2
     1040  1045  1066  1067    1  180.0000000000    15.1670000000      2
     1046  1045  1066  1065    1  180.0000000000    15.1670000000      2
     1046  1045  1066  1067    1  180.0000000000    15.1670000000      2
     1060  1058  1056  1057    1  0.0000000000      0.6508444444       3
     1060  1058  1056  2883    1  0.0000000000      0.6508444444       3
     2882  1058  1056  1057    1  0.0000000000      0.6508444444       3
     2877  2882  2883  2884    1  180.0000000000    15.1670000000      2
     2877  2882  2883  1056    1  180.0000000000    15.1670000000      2
     2877  2882  1058  1056    1  180.0000000000    1.0041600000       2
     2883  2882  1058  1056    1  180.0000000000    1.0041600000       2
     2877  2882  1058  1059    1  0.0000000000      0.0000000000       1
     2883  2882  1058  1059    1  0.0000000000      0.0000000000       1
     2877  2882  1058  1060    1  180.0000000000    1.0041600000       2
     2883  2882  1058  1060    1  180.0000000000    1.0041600000       2
     769   770   771   772     1  180.0000000000    15.1670000000      2
     769   770   771   773     1  180.0000000000    15.1670000000      2
     792   770   771   772     1  180.0000000000    15.1670000000      2
     792   770   771   773     1  180.0000000000    15.1670000000      2
     769   770   792   793     1  180.0000000000    4.1840000000       2
     769   770   792   827     1  180.0000000000    4.1840000000       2
     771   770   792   793     1  180.0000000000    4.1840000000       2
     771   770   792   827     1  180.0000000000    4.1840000000       2
     760   764   765   766     1  0.0000000000      0.5439200000       3
     760   764   765   767     1  0.0000000000      0.5439200000       3
     760   764   765   768     1  0.0000000000      0.5439200000       3
     769   764   765   766     1  0.0000000000      0.6508444444       3
     769   764   765   767     1  0.0000000000      0.6508444444       3
     769   764   765   768     1  0.0000000000      0.6508444444       3
     793   764   765   766     1  0.0000000000      0.6508444444       3
     793   764   765   767     1  0.0000000000      0.6508444444       3
     793   764   765   768     1  0.0000000000      0.6508444444       3
     760   764   769   770     1  0.0000000000      0.0000000000       2
     760   764   769   790     1  180.0000000000    1.0041600000       2
     765   764   769   770     1  0.0000000000      0.0000000000       2
     765   764   769   790     1  180.0000000000    1.0041600000       2
     793   764   769   770     1  0.0000000000      0.0000000000       2
     793   764   769   790     1  180.0000000000    0.0000000000       2
     760   764   793   792     1  0.0000000000      0.0000000000       2
     760   764   793   794     1  180.0000000000    1.0041600000       2
     765   764   793   792     1  0.0000000000      0.0000000000       2
     765   764   793   794     1  180.0000000000    1.0041600000       2
     769   764   793   792     1  0.0000000000      0.0000000000       2
     769   764   793   794     1  180.0000000000    0.0000000000       2
     1045  1046  1047  1048    1  180.0000000000    15.1670000000      2
     1045  1046  1047  1049    1  180.0000000000    15.1670000000      2
     1068  1046  1047  1048    1  180.0000000000    15.1670000000      2
     1068  1046  1047  1049    1  180.0000000000    15.1670000000      2
     1045  1046  1068  1069    1  180.0000000000    4.1840000000       2
     1045  1046  1068  1103    1  180.0000000000    4.1840000000       2
     1047  1046  1068  1069    1  180.0000000000    4.1840000000       2
     1047  1046  1068  1103    1  180.0000000000    4.1840000000       2
     3934  3938  3939  3940    1  0.0000000000      0.5439200000       3
     3934  3938  3939  3941    1  0.0000000000      0.5439200000       3
     3934  3938  3939  3942    1  0.0000000000      0.5439200000       3
     3943  3938  3939  3940    1  0.0000000000      0.6508444444       3
     3943  3938  3939  3941    1  0.0000000000      0.6508444444       3
     3943  3938  3939  3942    1  0.0000000000      0.6508444444       3
     3967  3938  3939  3940    1  0.0000000000      0.6508444444       3
     3967  3938  3939  3941    1  0.0000000000      0.6508444444       3
     3967  3938  3939  3942    1  0.0000000000      0.6508444444       3
     3934  3938  3943  3944    1  0.0000000000      0.0000000000       2
     3934  3938  3943  3964    1  180.0000000000    1.0041600000       2
     3939  3938  3943  3944    1  0.0000000000      0.0000000000       2
     3939  3938  3943  3964    1  180.0000000000    1.0041600000       2
     3967  3938  3943  3944    1  0.0000000000      0.0000000000       2
     3967  3938  3943  3964    1  180.0000000000    0.0000000000       2
     3934  3938  3967  3966    1  0.0000000000      0.0000000000       2
     3934  3938  3967  3968    1  180.0000000000    1.0041600000       2
     3939  3938  3967  3966    1  0.0000000000      0.0000000000       2
     3939  3938  3967  3968    1  180.0000000000    1.0041600000       2
     3943  3938  3967  3966    1  0.0000000000      0.0000000000       2
     3943  3938  3967  3968    1  180.0000000000    0.0000000000       2
     2591  2615  2617  2595    1  0.0000000000      0.6508444444       3
     2591  2615  2617  2618    1  0.0000000000      0.6508444444       3
     2591  2615  2617  2619    1  0.0000000000      0.6508444444       3
     2613  2615  2617  2595    1  0.0000000000      0.6508444444       3
     2613  2615  2617  2618    1  0.0000000000      0.6508444444       3
     2613  2615  2617  2619    1  0.0000000000      0.6508444444       3
     2616  2615  2617  2595    1  0.0000000000      0.5439200000       3
     2616  2615  2617  2618    1  0.0000000000      0.5020800000       3
     2616  2615  2617  2619    1  0.0000000000      0.5020800000       3
     1046  1068  1069  1040    1  180.0000000000    15.1670000000      2
     1046  1068  1069  1070    1  180.0000000000    15.1670000000      2
     1103  1068  1069  1040    1  180.0000000000    15.1670000000      2
     1103  1068  1069  1070    1  180.0000000000    15.1670000000      2
     1046  1068  1103  1102    1  180.0000000000    15.1670000000      2
     1046  1068  1103  1104    1  180.0000000000    15.1670000000      2
     1069  1068  1103  1102    1  180.0000000000    15.1670000000      2
     1069  1068  1103  1104    1  180.0000000000    15.1670000000      2
     1056  1054  1052  1050    1  0.0000000000      2.1756800000       3
     1056  1054  1052  1053    1  0.0000000000      0.5439200000       3
     1056  1054  1052  1065    1  0.0000000000      0.6508444444       3
     1052  1054  1056  1057    1  0.0000000000      0.5439200000       3
     1052  1054  1056  1058    1  0.0000000000      2.1756800000       3
     1055  1054  1056  1057    1  0.0000000000      0.5020800000       3
     1055  1054  1056  1058    1  0.0000000000      0.5439200000       3
     1062  1054  1056  1057    1  0.0000000000      0.5439200000       3
     1062  1054  1056  1058    1  0.0000000000      2.1756800000       3
     1052  1054  1062  1060    1  0.0000000000      0.6508444444       3
     1052  1054  1062  1063    1  0.0000000000      0.6508444444       3
     1052  1054  1062  1064    1  0.0000000000      0.6508444444       3
     1055  1054  1062  1060    1  0.0000000000      0.5439200000       3
     1055  1054  1062  1063    1  0.0000000000      0.5020800000       3
     1055  1054  1062  1064    1  0.0000000000      0.5020800000       3
     1056  1054  1062  1063    1  0.0000000000      0.6508444444       3
     1056  1054  1062  1064    1  0.0000000000      0.6508444444       3
     1052  1054  1056  2883    1  0.0000000000      0.6508444444       3
     1055  1054  1056  2883    1  0.0000000000      0.6508444444       3
     1062  1054  1056  2883    1  0.0000000000      0.6508444444       3
     1058  1060  1050  1049    1  0.0000000000      0.6508444444       3
     1058  1060  1050  1051    1  0.0000000000      0.5439200000       3
     1058  1060  1050  1052    1  0.0000000000      2.1756800000       3
     1050  1060  1058  1056    1  0.0000000000      2.1756800000       3
     1061  1060  1058  1056    1  0.0000000000      0.5439200000       3
     1062  1060  1058  1056    1  0.0000000000      2.1756800000       3
     1050  1060  1058  1059    1  0.0000000000      0.5439200000       3
     1061  1060  1058  1059    1  0.0000000000      0.5020800000       3
     1062  1060  1058  1059    1  0.0000000000      0.5439200000       3
     1050  1060  1062  1054    1  0.0000000000      0.6508444444       3
     1050  1060  1062  1063    1  0.0000000000      0.6508444444       3
     1050  1060  1062  1064    1  0.0000000000      0.6508444444       3
     1058  1060  1062  1063    1  0.0000000000      0.6508444444       3
     1058  1060  1062  1064    1  0.0000000000      0.6508444444       3
     1061  1060  1062  1054    1  0.0000000000      0.5439200000       3
     1061  1060  1062  1063    1  0.0000000000      0.5020800000       3
     1061  1060  1062  1064    1  0.0000000000      0.5020800000       3
     1050  1060  1058  2882    1  0.0000000000      0.6508444444       3
     1061  1060  1058  2882    1  0.0000000000      0.6508444444       3
     1062  1060  1058  2882    1  0.0000000000      0.6508444444       3
     2882  2883  2884  2875    1  180.0000000000    15.1670000000      2
     1056  2883  2882  1058    1  180.0000000000    15.1670000000      2
     2882  2883  1056  1054    1  180.0000000000    1.0041600000       2
     2884  2883  1056  1054    1  180.0000000000    1.0041600000       2
     2882  2883  1056  1057    1  0.0000000000      0.0000000000       1
     2884  2883  1056  1057    1  0.0000000000      0.0000000000       1
     2882  2883  1056  1058    1  180.0000000000    1.0041600000       2
     2884  2883  1056  1058    1  180.0000000000    1.0041600000       2
     2884  2883  2882  1058    1  180.0000000000    15.1670000000      2
     1036  1040  1041  1042    1  0.0000000000      0.5439200000       3
     1036  1040  1041  1043    1  0.0000000000      0.5439200000       3
     1036  1040  1041  1044    1  0.0000000000      0.5439200000       3
     1045  1040  1041  1042    1  0.0000000000      0.6508444444       3
     1045  1040  1041  1043    1  0.0000000000      0.6508444444       3
     1045  1040  1041  1044    1  0.0000000000      0.6508444444       3
     1069  1040  1041  1042    1  0.0000000000      0.6508444444       3
     1069  1040  1041  1043    1  0.0000000000      0.6508444444       3
     1069  1040  1041  1044    1  0.0000000000      0.6508444444       3
     1036  1040  1045  1046    1  0.0000000000      0.0000000000       2
     1036  1040  1045  1066    1  180.0000000000    1.0041600000       2
     1041  1040  1045  1046    1  0.0000000000      0.0000000000       2
     1041  1040  1045  1066    1  180.0000000000    1.0041600000       2
     1069  1040  1045  1046    1  0.0000000000      0.0000000000       2
     1069  1040  1045  1066    1  180.0000000000    0.0000000000       2
     1036  1040  1069  1068    1  0.0000000000      0.0000000000       2
     1036  1040  1069  1070    1  180.0000000000    1.0041600000       2
     1041  1040  1069  1068    1  0.0000000000      0.0000000000       2
     1041  1040  1069  1070    1  180.0000000000    1.0041600000       2
     1045  1040  1069  1068    1  0.0000000000      0.0000000000       2
     1045  1040  1069  1070    1  180.0000000000    0.0000000000       2
     3950  3952  3954  3955    1  0.0000000000      0.5439200000       3
     3950  3952  3954  3956    1  0.0000000000      2.1756800000       3
     3953  3952  3954  3955    1  0.0000000000      0.5020800000       3
     3953  3952  3954  3956    1  0.0000000000      0.5439200000       3
     3960  3952  3954  3955    1  0.0000000000      0.5439200000       3
     3960  3952  3954  3956    1  0.0000000000      2.1756800000       3
     3950  3952  3960  3958    1  0.0000000000      0.6508444444       3
     3950  3952  3960  3961    1  0.0000000000      0.6508444444       3
     3950  3952  3960  3962    1  0.0000000000      0.6508444444       3
     3953  3952  3960  3958    1  0.0000000000      0.5439200000       3
     3953  3952  3960  3961    1  0.0000000000      0.5020800000       3
     3953  3952  3960  3962    1  0.0000000000      0.5020800000       3
     3954  3952  3960  3961    1  0.0000000000      0.6508444444       3
     3954  3952  3960  3962    1  0.0000000000      0.6508444444       3
     3954  3952  3950  3948    1  0.0000000000      2.1756800000       3
     3954  3952  3950  3951    1  0.0000000000      0.5439200000       3
     3954  3952  3950  3963    1  0.0000000000      0.6508444444       3
     3953  3952  3954  3020    1  0.0000000000      0.6508444444       3
     3960  3952  3954  3020    1  0.0000000000      0.6508444444       3
     3950  3952  3954  3020    1  0.0000000000      0.6508444444       3
     1060  1062  1054  1056    1  0.0000000000      0.6508444444       3
     1054  1062  1060  1058    1  0.0000000000      0.6508444444       3
     2800  2802  2804  2805    1  0.0000000000      0.5439200000       3
     2800  2802  2804  2806    1  0.0000000000      0.6508444444       3
     2800  2802  2804  2820    1  0.0000000000      2.1756800000       3
     2803  2802  2804  2805    1  0.0000000000      0.5020800000       3
     2803  2802  2804  2806    1  0.0000000000      0.6508444444       3
     2803  2802  2804  2820    1  0.0000000000      0.5439200000       3
     2824  2802  2804  2805    1  0.0000000000      0.5439200000       3
     2824  2802  2804  2806    1  0.0000000000      0.6508444444       3
     2824  2802  2804  2820    1  0.0000000000      2.1756800000       3
     2800  2802  2824  2822    1  0.0000000000      0.6508444444       3
     2800  2802  2824  2825    1  0.0000000000      0.6508444444       3
     2800  2802  2824  2826    1  0.0000000000      0.6508444444       3
     2803  2802  2824  2822    1  0.0000000000      0.5439200000       3
     2803  2802  2824  2825    1  0.0000000000      0.5020800000       3
     2803  2802  2824  2826    1  0.0000000000      0.5020800000       3
     2804  2802  2824  2822    1  0.0000000000      0.6508444444       3
     2804  2802  2824  2825    1  0.0000000000      0.6508444444       3
     2804  2802  2824  2826    1  0.0000000000      0.6508444444       3
     770   771   773   774     1  180.0000000000    15.1670000000      2
     770   771   773   789     1  180.0000000000    15.1670000000      2
     772   771   773   774     1  180.0000000000    15.1670000000      2
     772   771   773   789     1  180.0000000000    15.1670000000      2
     3090  3091  3082  3080    1  180.0000000000    15.1670000000      2
     3092  3091  3090  3089    1  180.0000000000    15.1670000000      2
     3082  3091  3092  3093    1  0.0000000000      0.0000000000       2
     3082  3091  3092  3094    1  0.0000000000      0.0000000000       2
     3082  3091  3092  3095    1  0.0000000000      0.0000000000       2
     3082  3091  3090  780     1  180.0000000000    15.1670000000      2
     3092  3091  3090  780     1  180.0000000000    15.1670000000      2
     2802  2804  2806  2807    1  180.0000000000    1.0041600000       2
     2802  2804  2806  2815    1  180.0000000000    1.0041600000       2
     2805  2804  2806  2807    1  0.0000000000      0.0000000000       1
     2805  2804  2806  2815    1  0.0000000000      0.0000000000       1
     2820  2804  2806  2807    1  180.0000000000    1.0041600000       2
     2820  2804  2806  2815    1  180.0000000000    1.0041600000       2
     2802  2804  2820  2807    1  0.0000000000      0.6508444444       3
     2802  2804  2820  2821    1  0.0000000000      0.6508444444       3
     2802  2804  2820  2822    1  0.0000000000      0.6508444444       3
     2805  2804  2820  2807    1  0.0000000000      0.6508444444       3
     2805  2804  2820  2821    1  0.0000000000      0.6508444444       3
     2805  2804  2820  2822    1  0.0000000000      0.6508444444       3
     2806  2804  2820  2807    1  0.0000000000      0.6508444444       3
     2806  2804  2820  2821    1  0.0000000000      0.6508444444       3
     2806  2804  2820  2822    1  0.0000000000      0.6508444444       3
     764   769   770   771     1  180.0000000000    15.1670000000      2
     764   769   770   792     1  180.0000000000    15.1670000000      2
     790   769   770   771     1  180.0000000000    15.1670000000      2
     790   769   770   792     1  180.0000000000    15.1670000000      2
     764   769   790   789     1  180.0000000000    15.1670000000      2
     764   769   790   791     1  180.0000000000    15.1670000000      2
     770   769   790   789     1  180.0000000000    15.1670000000      2
     770   769   790   791     1  180.0000000000    15.1670000000      2
     2797  2798  2800  2801    1  0.0000000000      0.6508444444       3
     2797  2798  2800  2802    1  0.0000000000      0.6508444444       3
     2797  2798  2800  2827    1  0.0000000000      0.6508444444       3
     2799  2798  2800  2801    1  0.0000000000      0.6508444444       3
     2799  2798  2800  2802    1  0.0000000000      0.6508444444       3
     2799  2798  2800  2827    1  0.0000000000      0.6508444444       3
     2822  2798  2800  2801    1  0.0000000000      0.6508444444       3
     2822  2798  2800  2802    1  0.0000000000      0.6508444444       3
     2822  2798  2800  2827    1  0.0000000000      0.6508444444       3
     2797  2798  2822  2820    1  0.0000000000      0.6508444444       3
     2797  2798  2822  2823    1  0.0000000000      0.6508444444       3
     2797  2798  2822  2824    1  0.0000000000      0.6508444444       3
     2799  2798  2822  2820    1  0.0000000000      0.5439200000       3
     2799  2798  2822  2823    1  0.0000000000      0.5020800000       3
     2799  2798  2822  2824    1  0.0000000000      0.5439200000       3
     2800  2798  2822  2820    1  0.0000000000      2.1756800000       3
     2800  2798  2822  2823    1  0.0000000000      0.5439200000       3
     2800  2798  2822  2824    1  0.0000000000      2.1756800000       3
     1519  1523  1524  1525    1  0.0000000000      0.5439200000       3
     1519  1523  1524  1526    1  0.0000000000      0.5439200000       3
     1519  1523  1524  1527    1  0.0000000000      0.5439200000       3
     1528  1523  1524  1525    1  0.0000000000      0.6508444444       3
     1528  1523  1524  1526    1  0.0000000000      0.6508444444       3
     1528  1523  1524  1527    1  0.0000000000      0.6508444444       3
     1552  1523  1524  1525    1  0.0000000000      0.6508444444       3
     1552  1523  1524  1526    1  0.0000000000      0.6508444444       3
     1552  1523  1524  1527    1  0.0000000000      0.6508444444       3
     1519  1523  1528  1529    1  0.0000000000      0.0000000000       2
     1519  1523  1528  1549    1  180.0000000000    1.0041600000       2
     1524  1523  1528  1529    1  0.0000000000      0.0000000000       2
     1524  1523  1528  1549    1  180.0000000000    1.0041600000       2
     1552  1523  1528  1529    1  0.0000000000      0.0000000000       2
     1552  1523  1528  1549    1  180.0000000000    0.0000000000       2
     1519  1523  1552  1551    1  0.0000000000      0.0000000000       2
     1519  1523  1552  1553    1  180.0000000000    1.0041600000       2
     1524  1523  1552  1551    1  0.0000000000      0.0000000000       2
     1524  1523  1552  1553    1  180.0000000000    1.0041600000       2
     1528  1523  1552  1551    1  0.0000000000      0.0000000000       2
     1528  1523  1552  1553    1  180.0000000000    0.0000000000       2
     3093  3092  3091  3090    1  0.0000000000      0.0000000000       2
     3094  3092  3091  3090    1  0.0000000000      0.0000000000       2
     3095  3092  3091  3090    1  0.0000000000      0.0000000000       2
     3084  3089  3090  3091    1  180.0000000000    15.1670000000      2
     782   3089  3090  780     1  180.0000000000    15.1670000000      2
     3084  3089  782   780     1  180.0000000000    1.0041600000       2
     3090  3089  782   780     1  180.0000000000    1.0041600000       2
     3084  3089  782   783     1  0.0000000000      0.0000000000       1
     3090  3089  782   783     1  0.0000000000      0.0000000000       1
     3084  3089  782   784     1  180.0000000000    1.0041600000       2
     3090  3089  782   784     1  180.0000000000    1.0041600000       2
     3084  3089  3090  780     1  180.0000000000    15.1670000000      2
     2798  2822  2824  2802    1  0.0000000000      0.6508444444       3
     2798  2822  2824  2825    1  0.0000000000      0.6508444444       3
     2798  2822  2824  2826    1  0.0000000000      0.6508444444       3
     2820  2822  2824  2802    1  0.0000000000      0.6508444444       3
     2820  2822  2824  2825    1  0.0000000000      0.6508444444       3
     2820  2822  2824  2826    1  0.0000000000      0.6508444444       3
     2823  2822  2824  2802    1  0.0000000000      0.5439200000       3
     2823  2822  2824  2825    1  0.0000000000      0.5020800000       3
     2823  2822  2824  2826    1  0.0000000000      0.5020800000       3
     3089  3090  3091  3082    1  180.0000000000    15.1670000000      2
     3091  3090  3089  782     1  180.0000000000    15.1670000000      2
     3089  3090  780   778     1  180.0000000000    1.0041600000       2
     3091  3090  780   778     1  180.0000000000    1.0041600000       2
     3089  3090  780   781     1  0.0000000000      0.0000000000       1
     3091  3090  780   781     1  0.0000000000      0.0000000000       1
     3089  3090  780   782     1  180.0000000000    1.0041600000       2
     3091  3090  780   782     1  180.0000000000    1.0041600000       2
     2761  2765  2766  2767    1  0.0000000000      0.5439200000       3
     2761  2765  2766  2768    1  0.0000000000      0.5439200000       3
     2761  2765  2766  2769    1  0.0000000000      0.5439200000       3
     2770  2765  2766  2767    1  0.0000000000      0.6508444444       3
     2770  2765  2766  2768    1  0.0000000000      0.6508444444       3
     2770  2765  2766  2769    1  0.0000000000      0.6508444444       3
     2794  2765  2766  2767    1  0.0000000000      0.6508444444       3
     2794  2765  2766  2768    1  0.0000000000      0.6508444444       3
     2794  2765  2766  2769    1  0.0000000000      0.6508444444       3
     2761  2765  2770  2771    1  0.0000000000      0.0000000000       2
     2761  2765  2770  2791    1  180.0000000000    1.0041600000       2
     2766  2765  2770  2771    1  0.0000000000      0.0000000000       2
     2766  2765  2770  2791    1  180.0000000000    1.0041600000       2
     2794  2765  2770  2771    1  0.0000000000      0.0000000000       2
     2794  2765  2770  2791    1  180.0000000000    0.0000000000       2
     2761  2765  2794  2793    1  0.0000000000      0.0000000000       2
     2761  2765  2794  2795    1  180.0000000000    1.0041600000       2
     2766  2765  2794  2793    1  0.0000000000      0.0000000000       2
     2766  2765  2794  2795    1  180.0000000000    1.0041600000       2
     2770  2765  2794  2793    1  0.0000000000      0.0000000000       2
     2770  2765  2794  2795    1  180.0000000000    0.0000000000       2
     2770  2771  2772  2773    1  180.0000000000    15.1670000000      2
     2770  2771  2772  2774    1  180.0000000000    15.1670000000      2
     2793  2771  2772  2773    1  180.0000000000    15.1670000000      2
     2793  2771  2772  2774    1  180.0000000000    15.1670000000      2
     2770  2771  2793  2794    1  180.0000000000    4.1840000000       2
     2770  2771  2793  2828    1  180.0000000000    4.1840000000       2
     2772  2771  2793  2794    1  180.0000000000    4.1840000000       2
     2772  2771  2793  2828    1  180.0000000000    4.1840000000       2
     773   789   790   769     1  180.0000000000    15.1670000000      2
     773   789   790   791     1  180.0000000000    15.1670000000      2
     776   789   790   769     1  180.0000000000    15.1670000000      2
     776   789   790   791     1  180.0000000000    15.1670000000      2
     782   784   774   773     1  0.0000000000      0.6508444444       3
     782   784   774   775     1  0.0000000000      0.5439200000       3
     782   784   774   776     1  0.0000000000      2.1756800000       3
     774   784   782   780     1  0.0000000000      2.1756800000       3
     785   784   782   780     1  0.0000000000      0.5439200000       3
     786   784   782   780     1  0.0000000000      2.1756800000       3
     774   784   782   783     1  0.0000000000      0.5439200000       3
     785   784   782   783     1  0.0000000000      0.5020800000       3
     786   784   782   783     1  0.0000000000      0.5439200000       3
     774   784   786   778     1  0.0000000000      0.6508444444       3
     774   784   786   787     1  0.0000000000      0.6508444444       3
     774   784   786   788     1  0.0000000000      0.6508444444       3
     782   784   786   787     1  0.0000000000      0.6508444444       3
     782   784   786   788     1  0.0000000000      0.6508444444       3
     785   784   786   778     1  0.0000000000      0.5439200000       3
     785   784   786   787     1  0.0000000000      0.5020800000       3
     785   784   786   788     1  0.0000000000      0.5020800000       3
     774   784   782   3089    1  0.0000000000      0.6508444444       3
     785   784   782   3089    1  0.0000000000      0.6508444444       3
     786   784   782   3089    1  0.0000000000      0.6508444444       3
     1520  1519  1523  1524    1  0.0000000000      0.5439200000       3
     1520  1519  1523  1528    1  0.0000000000      0.6508444444       3
     1520  1519  1523  1552    1  0.0000000000      0.6508444444       3
     1521  1519  1523  1524    1  0.0000000000      0.5439200000       3
     1521  1519  1523  1528    1  0.0000000000      0.6508444444       3
     1521  1519  1523  1552    1  0.0000000000      0.6508444444       3
     1522  1519  1523  1524    1  0.0000000000      0.5439200000       3
     1522  1519  1523  1528    1  0.0000000000      0.6508444444       3
     1522  1519  1523  1552    1  0.0000000000      0.6508444444       3
     784   786   778   780     1  0.0000000000      0.6508444444       3
     778   786   784   782     1  0.0000000000      0.6508444444       3
     771   773   774   775     1  0.0000000000      0.0000000000       1
     771   773   774   776     1  180.0000000000    1.0041600000       2
     771   773   774   784     1  180.0000000000    1.0041600000       2
     789   773   774   775     1  0.0000000000      0.0000000000       1
     789   773   774   776     1  180.0000000000    1.0041600000       2
     789   773   774   784     1  180.0000000000    1.0041600000       2
     771   773   789   776     1  180.0000000000    15.1670000000      2
     771   773   789   790     1  180.0000000000    15.1670000000      2
     774   773   789   776     1  180.0000000000    15.1670000000      2
     774   773   789   790     1  180.0000000000    15.1670000000      2
     2762  2761  2765  2766    1  0.0000000000      0.5439200000       3
     2762  2761  2765  2770    1  0.0000000000      0.6508444444       3
     2762  2761  2765  2794    1  0.0000000000      0.6508444444       3
     2763  2761  2765  2766    1  0.0000000000      0.5439200000       3
     2763  2761  2765  2770    1  0.0000000000      0.6508444444       3
     2763  2761  2765  2794    1  0.0000000000      0.6508444444       3
     2764  2761  2765  2766    1  0.0000000000      0.5439200000       3
     2764  2761  2765  2770    1  0.0000000000      0.6508444444       3
     2764  2761  2765  2794    1  0.0000000000      0.6508444444       3
     2795  2797  2798  2799    1  0.0000000000      0.0000000000       1
     2795  2797  2798  2800    1  180.0000000000    1.0041600000       2
     2795  2797  2798  2822    1  180.0000000000    1.0041600000       2
     2827  2797  2798  2799    1  0.0000000000      0.0000000000       1
     2827  2797  2798  2800    1  180.0000000000    1.0041600000       2
     2827  2797  2798  2822    1  180.0000000000    1.0041600000       2
     2795  2797  2827  2800    1  180.0000000000    15.1670000000      2
     2795  2797  2827  2828    1  180.0000000000    15.1670000000      2
     2798  2797  2827  2800    1  180.0000000000    15.1670000000      2
     2798  2797  2827  2828    1  180.0000000000    15.1670000000      2
     780   778   776   774     1  0.0000000000      2.1756800000       3
     780   778   776   777     1  0.0000000000      0.5439200000       3
     780   778   776   789     1  0.0000000000      0.6508444444       3
     776   778   780   781     1  0.0000000000      0.5439200000       3
     776   778   780   782     1  0.0000000000      2.1756800000       3
     779   778   780   781     1  0.0000000000      0.5020800000       3
     779   778   780   782     1  0.0000000000      0.5439200000       3
     786   778   780   781     1  0.0000000000      0.5439200000       3
     786   778   780   782     1  0.0000000000      2.1756800000       3
     776   778   786   784     1  0.0000000000      0.6508444444       3
     776   778   786   787     1  0.0000000000      0.6508444444       3
     776   778   786   788     1  0.0000000000      0.6508444444       3
     779   778   786   784     1  0.0000000000      0.5439200000       3
     779   778   786   787     1  0.0000000000      0.5020800000       3
     779   778   786   788     1  0.0000000000      0.5020800000       3
     780   778   786   787     1  0.0000000000      0.6508444444       3
     780   778   786   788     1  0.0000000000      0.6508444444       3
     776   778   780   3090    1  0.0000000000      0.6508444444       3
     779   778   780   3090    1  0.0000000000      0.6508444444       3
     786   778   780   3090    1  0.0000000000      0.6508444444       3
     2794  2795  2797  2798    1  180.0000000000    15.1670000000      2
     2794  2795  2797  2827    1  180.0000000000    15.1670000000      2
     2796  2795  2797  2798    1  180.0000000000    15.1670000000      2
     2796  2795  2797  2827    1  180.0000000000    15.1670000000      2
     784   782   780   781     1  0.0000000000      0.6508444444       3
     3089  782   780   781     1  0.0000000000      0.6508444444       3
     3089  782   780   3090    1  0.0000000000      0.6508444444       3
     784   782   780   3090    1  0.0000000000      0.6508444444       3
     2804  2806  2807  2808    1  180.0000000000    15.1670000000      2
     2804  2806  2807  2820    1  180.0000000000    15.1670000000      2
     2815  2806  2807  2808    1  180.0000000000    15.1670000000      2
     2815  2806  2807  2820    1  180.0000000000    15.1670000000      2
     2804  2806  2815  2814    1  180.0000000000    15.1670000000      2
     2804  2806  2815  2816    1  180.0000000000    15.1670000000      2
     2807  2806  2815  2814    1  180.0000000000    15.1670000000      2
     2807  2806  2815  2816    1  180.0000000000    15.1670000000      2
     773   774   776   777     1  0.0000000000      0.6508444444       3
     773   774   776   778     1  0.0000000000      0.6508444444       3
     773   774   776   789     1  0.0000000000      0.6508444444       3
     775   774   776   777     1  0.0000000000      0.6508444444       3
     775   774   776   778     1  0.0000000000      0.6508444444       3
     775   774   776   789     1  0.0000000000      0.6508444444       3
     784   774   776   777     1  0.0000000000      0.6508444444       3
     784   774   776   778     1  0.0000000000      0.6508444444       3
     784   774   776   789     1  0.0000000000      0.6508444444       3
     773   774   784   785     1  0.0000000000      0.6508444444       3
     773   774   784   786     1  0.0000000000      0.6508444444       3
     775   774   784   785     1  0.0000000000      0.5020800000       3
     775   774   784   786     1  0.0000000000      0.5439200000       3
     776   774   784   785     1  0.0000000000      0.5439200000       3
     776   774   784   786     1  0.0000000000      2.1756800000       3
     2807  2808  2809  2810    1  0.0000000000      0.0000000000       2
     2807  2808  2809  2811    1  0.0000000000      0.0000000000       2
     2807  2808  2809  2812    1  0.0000000000      0.0000000000       2
     2813  2808  2809  2810    1  0.0000000000      0.0000000000       2
     2813  2808  2809  2811    1  0.0000000000      0.0000000000       2
     2813  2808  2809  2812    1  0.0000000000      0.0000000000       2
     2807  2808  2813  2814    1  180.0000000000    15.1670000000      2
     2809  2808  2813  2814    1  180.0000000000    15.1670000000      2
     2771  2793  2794  2765    1  180.0000000000    15.1670000000      2
     2771  2793  2794  2795    1  180.0000000000    15.1670000000      2
     2828  2793  2794  2765    1  180.0000000000    15.1670000000      2
     2828  2793  2794  2795    1  180.0000000000    15.1670000000      2
     2771  2793  2828  2827    1  180.0000000000    15.1670000000      2
     2771  2793  2828  2829    1  180.0000000000    15.1670000000      2
     2794  2793  2828  2827    1  180.0000000000    15.1670000000      2
     2794  2793  2828  2829    1  180.0000000000    15.1670000000      2
     2765  2794  2795  2796    1  180.0000000000    15.1670000000      2
     2765  2794  2795  2797    1  180.0000000000    15.1670000000      2
     2793  2794  2795  2796    1  180.0000000000    15.1670000000      2
     2793  2794  2795  2797    1  180.0000000000    15.1670000000      2
     774   776   778   779     1  0.0000000000      0.5439200000       3
     774   776   778   786     1  0.0000000000      2.1756800000       3
     777   776   778   779     1  0.0000000000      0.5020800000       3
     777   776   778   786     1  0.0000000000      0.5439200000       3
     789   776   778   779     1  0.0000000000      0.6508444444       3
     789   776   778   786     1  0.0000000000      0.6508444444       3
     774   776   789   773     1  180.0000000000    1.0041600000       2
     774   776   789   790     1  180.0000000000    1.0041600000       2
     777   776   789   773     1  0.0000000000      0.0000000000       1
     777   776   789   790     1  0.0000000000      0.0000000000       1
     778   776   789   773     1  180.0000000000    1.0041600000       2
     778   776   789   790     1  180.0000000000    1.0041600000       2
     2765  2770  2771  2772    1  180.0000000000    15.1670000000      2
     2765  2770  2771  2793    1  180.0000000000    15.1670000000      2
     2791  2770  2771  2772    1  180.0000000000    15.1670000000      2
     2791  2770  2771  2793    1  180.0000000000    15.1670000000      2
     2765  2770  2791  2790    1  180.0000000000    15.1670000000      2
     2765  2770  2791  2792    1  180.0000000000    15.1670000000      2
     2771  2770  2791  2790    1  180.0000000000    15.1670000000      2
     2771  2770  2791  2792    1  180.0000000000    15.1670000000      2
     2804  2820  2822  2798    1  0.0000000000      2.1756800000       3
     2804  2820  2822  2823    1  0.0000000000      0.5439200000       3
     2804  2820  2822  2824    1  0.0000000000      2.1756800000       3
     2807  2820  2822  2798    1  0.0000000000      0.6508444444       3
     2807  2820  2822  2823    1  0.0000000000      0.6508444444       3
     2807  2820  2822  2824    1  0.0000000000      0.6508444444       3
     2821  2820  2822  2798    1  0.0000000000      0.5439200000       3
     2821  2820  2822  2823    1  0.0000000000      0.5020800000       3
     2821  2820  2822  2824    1  0.0000000000      0.5439200000       3
     778   780   782   783     1  0.0000000000      0.6508444444       3
     778   780   782   784     1  0.0000000000      0.6508444444       3
     781   780   782   783     1  0.0000000000      0.6508444444       3
     778   780   782   3089    1  0.0000000000      0.6508444444       3
     3090  780   782   783     1  0.0000000000      0.6508444444       3
     2797  2827  2828  2793    1  180.0000000000    15.1670000000      2
     2797  2827  2828  2829    1  180.0000000000    15.1670000000      2
     2800  2827  2828  2793    1  180.0000000000    15.1670000000      2
     2800  2827  2828  2829    1  180.0000000000    15.1670000000      2
     2806  2807  2808  2809    1  180.0000000000    15.1670000000      2
     2806  2807  2808  2813    1  180.0000000000    15.1670000000      2
     2820  2807  2808  2809    1  180.0000000000    15.1670000000      2
     2820  2807  2808  2813    1  180.0000000000    15.1670000000      2
     2806  2807  2820  2804    1  180.0000000000    1.0041600000       2
     2806  2807  2820  2821    1  0.0000000000      0.0000000000       1
     2806  2807  2820  2822    1  180.0000000000    1.0041600000       2
     2808  2807  2820  2804    1  180.0000000000    1.0041600000       2
     2808  2807  2820  2821    1  0.0000000000      0.0000000000       1
     2808  2807  2820  2822    1  180.0000000000    1.0041600000       2
     5696  5698  5700  5701    1  0.0000000000      0.5439200000       3
     5696  5698  5700  5702    1  0.0000000000      2.1756800000       3
     5696  5698  5700  5722    1  0.0000000000      2.1756800000       3
     5699  5698  5700  5701    1  0.0000000000      0.5020800000       3
     5699  5698  5700  5702    1  0.0000000000      0.5439200000       3
     5699  5698  5700  5722    1  0.0000000000      0.5439200000       3
     5725  5698  5700  5701    1  0.0000000000      0.6508444444       3
     5725  5698  5700  5702    1  0.0000000000      0.6508444444       3
     5725  5698  5700  5722    1  0.0000000000      0.6508444444       3
     5696  5698  5725  5695    1  180.0000000000    1.0041600000       2
     5696  5698  5725  5726    1  180.0000000000    1.0041600000       2
     5699  5698  5725  5695    1  0.0000000000      0.0000000000       1
     5699  5698  5725  5726    1  0.0000000000      0.0000000000       1
     5700  5698  5725  5695    1  180.0000000000    1.0041600000       2
     5700  5698  5725  5726    1  180.0000000000    1.0041600000       2
     5668  5669  5670  5671    1  180.0000000000    15.1670000000      2
     5668  5669  5670  5672    1  180.0000000000    15.1670000000      2
     5691  5669  5670  5671    1  180.0000000000    15.1670000000      2
     5691  5669  5670  5672    1  180.0000000000    15.1670000000      2
     5668  5669  5691  5692    1  180.0000000000    4.1840000000       2
     5668  5669  5691  5726    1  180.0000000000    4.1840000000       2
     5670  5669  5691  5692    1  180.0000000000    4.1840000000       2
     5670  5669  5691  5726    1  180.0000000000    4.1840000000       2
     5663  5668  5669  5670    1  180.0000000000    15.1670000000      2
     5663  5668  5669  5691    1  180.0000000000    15.1670000000      2
     5689  5668  5669  5670    1  180.0000000000    15.1670000000      2
     5689  5668  5669  5691    1  180.0000000000    15.1670000000      2
     5663  5668  5689  5688    1  180.0000000000    15.1670000000      2
     5663  5668  5689  5690    1  180.0000000000    15.1670000000      2
     5669  5668  5689  5688    1  180.0000000000    15.1670000000      2
     5669  5668  5689  5690    1  180.0000000000    15.1670000000      2
     5669  5691  5692  5663    1  180.0000000000    15.1670000000      2
     5669  5691  5692  5693    1  180.0000000000    15.1670000000      2
     5726  5691  5692  5663    1  180.0000000000    15.1670000000      2
     5726  5691  5692  5693    1  180.0000000000    15.1670000000      2
     5669  5691  5726  5725    1  180.0000000000    15.1670000000      2
     5669  5691  5726  5727    1  180.0000000000    15.1670000000      2
     5692  5691  5726  5725    1  180.0000000000    15.1670000000      2
     5692  5691  5726  5727    1  180.0000000000    15.1670000000      2
     2588  2590  2591  2592    1  0.0000000000      0.0000000000       1
     2588  2590  2591  2593    1  180.0000000000    1.0041600000       2
     2588  2590  2591  2615    1  180.0000000000    1.0041600000       2
     2620  2590  2591  2592    1  0.0000000000      0.0000000000       1
     2620  2590  2591  2593    1  180.0000000000    1.0041600000       2
     2620  2590  2591  2615    1  180.0000000000    1.0041600000       2
     2588  2590  2620  2593    1  180.0000000000    15.1670000000      2
     2588  2590  2620  2621    1  180.0000000000    15.1670000000      2
     2591  2590  2620  2593    1  180.0000000000    15.1670000000      2
     2591  2590  2620  2621    1  180.0000000000    15.1670000000      2
     3935  3934  3938  3939    1  0.0000000000      0.5439200000       3
     3935  3934  3938  3943    1  0.0000000000      0.6508444444       3
     3935  3934  3938  3967    1  0.0000000000      0.6508444444       3
     3936  3934  3938  3939    1  0.0000000000      0.5439200000       3
     3936  3934  3938  3943    1  0.0000000000      0.6508444444       3
     3936  3934  3938  3967    1  0.0000000000      0.6508444444       3
     3937  3934  3938  3939    1  0.0000000000      0.5439200000       3
     3937  3934  3938  3943    1  0.0000000000      0.6508444444       3
     3937  3934  3938  3967    1  0.0000000000      0.6508444444       3
     2590  2591  2593  2594    1  0.0000000000      0.6508444444       3
     2590  2591  2593  2595    1  0.0000000000      0.6508444444       3
     2590  2591  2593  2620    1  0.0000000000      0.6508444444       3
     2592  2591  2593  2594    1  0.0000000000      0.6508444444       3
     2592  2591  2593  2595    1  0.0000000000      0.6508444444       3
     2592  2591  2593  2620    1  0.0000000000      0.6508444444       3
     2615  2591  2593  2594    1  0.0000000000      0.6508444444       3
     2615  2591  2593  2595    1  0.0000000000      0.6508444444       3
     2615  2591  2593  2620    1  0.0000000000      0.6508444444       3
     2590  2591  2615  2613    1  0.0000000000      0.6508444444       3
     2590  2591  2615  2616    1  0.0000000000      0.6508444444       3
     2590  2591  2615  2617    1  0.0000000000      0.6508444444       3
     2592  2591  2615  2613    1  0.0000000000      0.5439200000       3
     2592  2591  2615  2616    1  0.0000000000      0.5020800000       3
     2592  2591  2615  2617    1  0.0000000000      0.5439200000       3
     2593  2591  2615  2613    1  0.0000000000      2.1756800000       3
     2593  2591  2615  2616    1  0.0000000000      0.5439200000       3
     2593  2591  2615  2617    1  0.0000000000      2.1756800000       3
     1637  1636  1635  1640    1  0.0000000000      0.0000000000       2
     1638  1636  1635  1640    1  0.0000000000      0.0000000000       2
     1639  1636  1635  1640    1  0.0000000000      0.0000000000       2
     5672  5688  5689  5668    1  180.0000000000    15.1670000000      2
     5672  5688  5689  5690    1  180.0000000000    15.1670000000      2
     5675  5688  5689  5668    1  180.0000000000    15.1670000000      2
     5675  5688  5689  5690    1  180.0000000000    15.1670000000      2
     2587  2588  2590  2591    1  180.0000000000    15.1670000000      2
     2587  2588  2590  2620    1  180.0000000000    15.1670000000      2
     2589  2588  2590  2591    1  180.0000000000    15.1670000000      2
     2589  2588  2590  2620    1  180.0000000000    15.1670000000      2
     2883  2884  2875  2873    1  180.0000000000    15.1670000000      2
     2885  2884  2883  2882    1  180.0000000000    15.1670000000      2
     2875  2884  2885  2886    1  0.0000000000      0.0000000000       2
     2875  2884  2885  2887    1  0.0000000000      0.0000000000       2
     2875  2884  2885  2888    1  0.0000000000      0.0000000000       2
     2875  2884  2883  1056    1  180.0000000000    15.1670000000      2
     2885  2884  2883  1056    1  180.0000000000    15.1670000000      2
     2873  2875  2876  2877    1  180.0000000000    15.1670000000      2
     2873  2875  2876  2889    1  180.0000000000    15.1670000000      2
     2884  2875  2876  2877    1  180.0000000000    15.1670000000      2
     2884  2875  2876  2889    1  180.0000000000    15.1670000000      2
     2873  2875  2884  2885    1  180.0000000000    15.1670000000      2
     2876  2875  2884  2883    1  180.0000000000    15.1670000000      2
     2876  2875  2884  2885    1  180.0000000000    15.1670000000      2
     2886  2885  2884  2883    1  0.0000000000      0.0000000000       2
     2887  2885  2884  2883    1  0.0000000000      0.0000000000       2
     2888  2885  2884  2883    1  0.0000000000      0.0000000000       2
     3947  3963  3964  3943    1  180.0000000000    15.1670000000      2
     3947  3963  3964  3965    1  180.0000000000    15.1670000000      2
     3950  3963  3964  3943    1  180.0000000000    15.1670000000      2
     3950  3963  3964  3965    1  180.0000000000    15.1670000000      2
     425   426   428   429     1  180.0000000000    15.1670000000      2
     425   426   428   444     1  180.0000000000    15.1670000000      2
     427   426   428   429     1  180.0000000000    15.1670000000      2
     427   426   428   444     1  180.0000000000    15.1670000000      2
     5698  5700  5702  5703    1  0.0000000000      0.5439200000       3
     5698  5700  5702  5704    1  0.0000000000      0.6508444444       3
     5698  5700  5702  5718    1  0.0000000000      2.1756800000       3
     5701  5700  5702  5703    1  0.0000000000      0.5020800000       3
     5701  5700  5702  5704    1  0.0000000000      0.6508444444       3
     5701  5700  5702  5718    1  0.0000000000      0.5439200000       3
     5722  5700  5702  5703    1  0.0000000000      0.5439200000       3
     5722  5700  5702  5704    1  0.0000000000      0.6508444444       3
     5722  5700  5702  5718    1  0.0000000000      2.1756800000       3
     5698  5700  5722  5720    1  0.0000000000      0.6508444444       3
     5698  5700  5722  5723    1  0.0000000000      0.6508444444       3
     5698  5700  5722  5724    1  0.0000000000      0.6508444444       3
     5701  5700  5722  5720    1  0.0000000000      0.5439200000       3
     5701  5700  5722  5723    1  0.0000000000      0.5020800000       3
     5701  5700  5722  5724    1  0.0000000000      0.5020800000       3
     5702  5700  5722  5720    1  0.0000000000      0.6508444444       3
     5702  5700  5722  5723    1  0.0000000000      0.6508444444       3
     5702  5700  5722  5724    1  0.0000000000      0.6508444444       3
     2871  2873  2875  2876    1  180.0000000000    1.0041600000       2
     2871  2873  2875  2884    1  180.0000000000    1.0041600000       2
     2874  2873  2875  2876    1  0.0000000000      0.0000000000       1
     2874  2873  2875  2884    1  0.0000000000      0.0000000000       1
     2889  2873  2875  2876    1  180.0000000000    1.0041600000       2
     2889  2873  2875  2884    1  180.0000000000    1.0041600000       2
     2871  2873  2889  2876    1  0.0000000000      0.6508444444       3
     2871  2873  2889  2890    1  0.0000000000      0.6508444444       3
     2871  2873  2889  2891    1  0.0000000000      0.6508444444       3
     2874  2873  2889  2876    1  0.0000000000      0.6508444444       3
     2874  2873  2889  2890    1  0.0000000000      0.6508444444       3
     2874  2873  2889  2891    1  0.0000000000      0.6508444444       3
     2875  2873  2889  2876    1  0.0000000000      0.6508444444       3
     2875  2873  2889  2890    1  0.0000000000      0.6508444444       3
     2875  2873  2889  2891    1  0.0000000000      0.6508444444       3
     6523  6524  6526  6527    1  0.0000000000      0.6508444444       3
     6523  6524  6526  6528    1  0.0000000000      0.6508444444       3
     6523  6524  6526  6553    1  0.0000000000      0.6508444444       3
     6525  6524  6526  6527    1  0.0000000000      0.6508444444       3
     6525  6524  6526  6528    1  0.0000000000      0.6508444444       3
     6525  6524  6526  6553    1  0.0000000000      0.6508444444       3
     6548  6524  6526  6527    1  0.0000000000      0.6508444444       3
     6548  6524  6526  6528    1  0.0000000000      0.6508444444       3
     6548  6524  6526  6553    1  0.0000000000      0.6508444444       3
     6523  6524  6548  6546    1  0.0000000000      0.6508444444       3
     6523  6524  6548  6549    1  0.0000000000      0.6508444444       3
     6523  6524  6548  6550    1  0.0000000000      0.6508444444       3
     6525  6524  6548  6546    1  0.0000000000      0.5439200000       3
     6525  6524  6548  6549    1  0.0000000000      0.5020800000       3
     6525  6524  6548  6550    1  0.0000000000      0.5439200000       3
     6526  6524  6548  6546    1  0.0000000000      2.1756800000       3
     6526  6524  6548  6549    1  0.0000000000      0.5439200000       3
     6526  6524  6548  6550    1  0.0000000000      2.1756800000       3
     3938  3943  3944  3945    1  180.0000000000    15.1670000000      2
     3938  3943  3944  3966    1  180.0000000000    15.1670000000      2
     3964  3943  3944  3945    1  180.0000000000    15.1670000000      2
     3964  3943  3944  3966    1  180.0000000000    15.1670000000      2
     3938  3943  3964  3963    1  180.0000000000    15.1670000000      2
     3938  3943  3964  3965    1  180.0000000000    15.1670000000      2
     3944  3943  3964  3963    1  180.0000000000    15.1670000000      2
     3944  3943  3964  3965    1  180.0000000000    15.1670000000      2
     5695  5725  5726  5691    1  180.0000000000    15.1670000000      2
     5695  5725  5726  5727    1  180.0000000000    15.1670000000      2
     5698  5725  5726  5691    1  180.0000000000    15.1670000000      2
     5698  5725  5726  5727    1  180.0000000000    15.1670000000      2
     5695  5696  5698  5699    1  0.0000000000      0.6508444444       3
     5695  5696  5698  5700    1  0.0000000000      0.6508444444       3
     5695  5696  5698  5725    1  0.0000000000      0.6508444444       3
     5697  5696  5698  5699    1  0.0000000000      0.6508444444       3
     5697  5696  5698  5700    1  0.0000000000      0.6508444444       3
     5697  5696  5698  5725    1  0.0000000000      0.6508444444       3
     5720  5696  5698  5699    1  0.0000000000      0.6508444444       3
     5720  5696  5698  5700    1  0.0000000000      0.6508444444       3
     5720  5696  5698  5725    1  0.0000000000      0.6508444444       3
     5695  5696  5720  5718    1  0.0000000000      0.6508444444       3
     5695  5696  5720  5721    1  0.0000000000      0.6508444444       3
     5695  5696  5720  5722    1  0.0000000000      0.6508444444       3
     5697  5696  5720  5718    1  0.0000000000      0.5439200000       3
     5697  5696  5720  5721    1  0.0000000000      0.5020800000       3
     5697  5696  5720  5722    1  0.0000000000      0.5439200000       3
     5698  5696  5720  5718    1  0.0000000000      2.1756800000       3
     5698  5696  5720  5721    1  0.0000000000      0.5439200000       3
     5698  5696  5720  5722    1  0.0000000000      2.1756800000       3
     5663  5692  5693  5694    1  180.0000000000    15.1670000000      2
     5663  5692  5693  5695    1  180.0000000000    15.1670000000      2
     5691  5692  5693  5694    1  180.0000000000    15.1670000000      2
     5691  5692  5693  5695    1  180.0000000000    15.1670000000      2
     2590  2620  2621  2586    1  180.0000000000    15.1670000000      2
     2590  2620  2621  2622    1  180.0000000000    15.1670000000      2
     2593  2620  2621  2586    1  180.0000000000    15.1670000000      2
     2593  2620  2621  2622    1  180.0000000000    15.1670000000      2
     2875  2876  2877  2878    1  180.0000000000    15.1670000000      2
     2875  2876  2877  2882    1  180.0000000000    15.1670000000      2
     2889  2876  2877  2878    1  180.0000000000    15.1670000000      2
     2875  2876  2889  2873    1  180.0000000000    1.0041600000       2
     2875  2876  2889  2890    1  0.0000000000      0.0000000000       1
     2875  2876  2889  2891    1  180.0000000000    1.0041600000       2
     2877  2876  2889  2873    1  180.0000000000    1.0041600000       2
     2877  2876  2889  2890    1  0.0000000000      0.0000000000       1
     2877  2876  2889  2891    1  180.0000000000    1.0041600000       2
     2564  2586  2587  2558    1  180.0000000000    15.1670000000      2
     2564  2586  2587  2588    1  180.0000000000    15.1670000000      2
     2621  2586  2587  2558    1  180.0000000000    15.1670000000      2
     2621  2586  2587  2588    1  180.0000000000    15.1670000000      2
     2564  2586  2621  2620    1  180.0000000000    15.1670000000      2
     2564  2586  2621  2622    1  180.0000000000    15.1670000000      2
     2587  2586  2621  2620    1  180.0000000000    15.1670000000      2
     2587  2586  2621  2622    1  180.0000000000    15.1670000000      2
     3080  3096  3098  3074    1  0.0000000000      2.1756800000       3
     3080  3096  3098  3099    1  0.0000000000      0.5439200000       3
     3080  3096  3098  3100    1  0.0000000000      2.1756800000       3
     3083  3096  3098  3074    1  0.0000000000      0.6508444444       3
     3083  3096  3098  3099    1  0.0000000000      0.6508444444       3
     3083  3096  3098  3100    1  0.0000000000      0.6508444444       3
     3097  3096  3098  3074    1  0.0000000000      0.5439200000       3
     3097  3096  3098  3099    1  0.0000000000      0.5020800000       3
     3097  3096  3098  3100    1  0.0000000000      0.5439200000       3
     2558  2587  2588  2589    1  180.0000000000    15.1670000000      2
     2558  2587  2588  2590    1  180.0000000000    15.1670000000      2
     2586  2587  2588  2589    1  180.0000000000    15.1670000000      2
     2586  2587  2588  2590    1  180.0000000000    15.1670000000      2
     415   419   420   421     1  0.0000000000      0.5439200000       3
     415   419   420   422     1  0.0000000000      0.5439200000       3
     415   419   420   423     1  0.0000000000      0.5439200000       3
     424   419   420   421     1  0.0000000000      0.6508444444       3
     424   419   420   422     1  0.0000000000      0.6508444444       3
     424   419   420   423     1  0.0000000000      0.6508444444       3
     448   419   420   421     1  0.0000000000      0.6508444444       3
     448   419   420   422     1  0.0000000000      0.6508444444       3
     448   419   420   423     1  0.0000000000      0.6508444444       3
     415   419   424   425     1  0.0000000000      0.0000000000       2
     415   419   424   445     1  180.0000000000    1.0041600000       2
     420   419   424   425     1  0.0000000000      0.0000000000       2
     420   419   424   445     1  180.0000000000    1.0041600000       2
     448   419   424   425     1  0.0000000000      0.0000000000       2
     448   419   424   445     1  180.0000000000    0.0000000000       2
     415   419   448   447     1  0.0000000000      0.0000000000       2
     415   419   448   449     1  180.0000000000    1.0041600000       2
     420   419   448   447     1  0.0000000000      0.0000000000       2
     420   419   448   449     1  180.0000000000    1.0041600000       2
     424   419   448   447     1  0.0000000000      0.0000000000       2
     424   419   448   449     1  180.0000000000    0.0000000000       2
     2564  2565  2567  2568    1  180.0000000000    15.1670000000      2
     2564  2565  2567  2583    1  180.0000000000    15.1670000000      2
     2566  2565  2567  2568    1  180.0000000000    15.1670000000      2
     2566  2565  2567  2583    1  180.0000000000    15.1670000000      2
     3073  3074  3076  3077    1  0.0000000000      0.6508444444       3
     3073  3074  3076  3078    1  0.0000000000      0.6508444444       3
     3073  3074  3076  3103    1  0.0000000000      0.6508444444       3
     3075  3074  3076  3077    1  0.0000000000      0.6508444444       3
     3075  3074  3076  3078    1  0.0000000000      0.6508444444       3
     3075  3074  3076  3103    1  0.0000000000      0.6508444444       3
     3098  3074  3076  3077    1  0.0000000000      0.6508444444       3
     3098  3074  3076  3078    1  0.0000000000      0.6508444444       3
     3098  3074  3076  3103    1  0.0000000000      0.6508444444       3
     3073  3074  3098  3096    1  0.0000000000      0.6508444444       3
     3073  3074  3098  3099    1  0.0000000000      0.6508444444       3
     3073  3074  3098  3100    1  0.0000000000      0.6508444444       3
     3075  3074  3098  3096    1  0.0000000000      0.5439200000       3
     3075  3074  3098  3099    1  0.0000000000      0.5020800000       3
     3075  3074  3098  3100    1  0.0000000000      0.5439200000       3
     3076  3074  3098  3096    1  0.0000000000      2.1756800000       3
     3076  3074  3098  3099    1  0.0000000000      0.5439200000       3
     3076  3074  3098  3100    1  0.0000000000      2.1756800000       3
     416   415   419   420     1  0.0000000000      0.5439200000       3
     416   415   419   424     1  0.0000000000      0.6508444444       3
     416   415   419   448     1  0.0000000000      0.6508444444       3
     417   415   419   420     1  0.0000000000      0.5439200000       3
     417   415   419   424     1  0.0000000000      0.6508444444       3
     417   415   419   448     1  0.0000000000      0.6508444444       3
     418   415   419   420     1  0.0000000000      0.5439200000       3
     418   415   419   424     1  0.0000000000      0.6508444444       3
     418   415   419   448     1  0.0000000000      0.6508444444       3
     3074  3098  3100  3078    1  0.0000000000      0.6508444444       3
     3074  3098  3100  3101    1  0.0000000000      0.6508444444       3
     3074  3098  3100  3102    1  0.0000000000      0.6508444444       3
     3096  3098  3100  3078    1  0.0000000000      0.6508444444       3
     3096  3098  3100  3101    1  0.0000000000      0.6508444444       3
     3096  3098  3100  3102    1  0.0000000000      0.6508444444       3
     3099  3098  3100  3078    1  0.0000000000      0.5439200000       3
     3099  3098  3100  3101    1  0.0000000000      0.5020800000       3
     3099  3098  3100  3102    1  0.0000000000      0.5020800000       3
     2576  2578  2568  2567    1  0.0000000000      0.6508444444       3
     2576  2578  2568  2569    1  0.0000000000      0.5439200000       3
     2576  2578  2568  2570    1  0.0000000000      2.1756800000       3
     2568  2578  2576  2574    1  0.0000000000      2.1756800000       3
     2579  2578  2576  2574    1  0.0000000000      0.5439200000       3
     2580  2578  2576  2574    1  0.0000000000      2.1756800000       3
     2568  2578  2576  2577    1  0.0000000000      0.5439200000       3
     2579  2578  2576  2577    1  0.0000000000      0.5020800000       3
     2580  2578  2576  2577    1  0.0000000000      0.5439200000       3
     2568  2578  2580  2572    1  0.0000000000      0.6508444444       3
     2568  2578  2580  2581    1  0.0000000000      0.6508444444       3
     2568  2578  2580  2582    1  0.0000000000      0.6508444444       3
     2576  2578  2580  2581    1  0.0000000000      0.6508444444       3
     2576  2578  2580  2582    1  0.0000000000      0.6508444444       3
     2579  2578  2580  2572    1  0.0000000000      0.5439200000       3
     2579  2578  2580  2581    1  0.0000000000      0.5020800000       3
     2579  2578  2580  2582    1  0.0000000000      0.5020800000       3
     2568  2578  2576  467     1  0.0000000000      0.6508444444       3
     2579  2578  2576  467     1  0.0000000000      0.6508444444       3
     2580  2578  2576  467     1  0.0000000000      0.6508444444       3
     424   425   426   427     1  180.0000000000    15.1670000000      2
     424   425   426   428     1  180.0000000000    15.1670000000      2
     447   425   426   427     1  180.0000000000    15.1670000000      2
     447   425   426   428     1  180.0000000000    15.1670000000      2
     424   425   447   448     1  180.0000000000    4.1840000000       2
     424   425   447   482     1  180.0000000000    4.1840000000       2
     426   425   447   448     1  180.0000000000    4.1840000000       2
     426   425   447   482     1  180.0000000000    4.1840000000       2
     2882  2877  2876  2889    1  180.0000000000    15.1670000000      2
     2876  2877  2878  2879    1  0.0000000000      0.0000000000       2
     2876  2877  2878  2880    1  0.0000000000      0.0000000000       2
     2876  2877  2878  2881    1  0.0000000000      0.0000000000       2
     2876  2877  2882  2883    1  180.0000000000    15.1670000000      2
     2878  2877  2882  2883    1  180.0000000000    15.1670000000      2
     2876  2877  2882  1058    1  180.0000000000    15.1670000000      2
     2878  2877  2882  1058    1  180.0000000000    15.1670000000      2
     6526  6528  6530  6531    1  0.0000000000      0.5439200000       3
     6526  6528  6530  6532    1  0.0000000000      0.6508444444       3
     6526  6528  6530  6546    1  0.0000000000      2.1756800000       3
     6529  6528  6530  6531    1  0.0000000000      0.5020800000       3
     6529  6528  6530  6532    1  0.0000000000      0.6508444444       3
     6529  6528  6530  6546    1  0.0000000000      0.5439200000       3
     6550  6528  6530  6531    1  0.0000000000      0.5439200000       3
     6550  6528  6530  6532    1  0.0000000000      0.6508444444       3
     6550  6528  6530  6546    1  0.0000000000      2.1756800000       3
     6526  6528  6550  6548    1  0.0000000000      0.6508444444       3
     6526  6528  6550  6551    1  0.0000000000      0.6508444444       3
     6526  6528  6550  6552    1  0.0000000000      0.6508444444       3
     6529  6528  6550  6548    1  0.0000000000      0.5439200000       3
     6529  6528  6550  6551    1  0.0000000000      0.5020800000       3
     6529  6528  6550  6552    1  0.0000000000      0.5020800000       3
     6530  6528  6550  6548    1  0.0000000000      0.6508444444       3
     6530  6528  6550  6551    1  0.0000000000      0.6508444444       3
     6530  6528  6550  6552    1  0.0000000000      0.6508444444       3
     6524  6526  6528  6529    1  0.0000000000      0.5439200000       3
     6524  6526  6528  6530    1  0.0000000000      2.1756800000       3
     6524  6526  6528  6550    1  0.0000000000      2.1756800000       3
     6527  6526  6528  6529    1  0.0000000000      0.5020800000       3
     6527  6526  6528  6530    1  0.0000000000      0.5439200000       3
     6527  6526  6528  6550    1  0.0000000000      0.5439200000       3
     6553  6526  6528  6529    1  0.0000000000      0.6508444444       3
     6553  6526  6528  6530    1  0.0000000000      0.6508444444       3
     6553  6526  6528  6550    1  0.0000000000      0.6508444444       3
     6524  6526  6553  6523    1  180.0000000000    1.0041600000       2
     6524  6526  6553  6554    1  180.0000000000    1.0041600000       2
     6527  6526  6553  6523    1  0.0000000000      0.0000000000       1
     6527  6526  6553  6554    1  0.0000000000      0.0000000000       1
     6528  6526  6553  6523    1  180.0000000000    1.0041600000       2
     6528  6526  6553  6554    1  180.0000000000    1.0041600000       2
     3086  3085  3084  3089    1  0.0000000000      0.0000000000       2
     3087  3085  3084  3089    1  0.0000000000      0.0000000000       2
     3088  3085  3084  3089    1  0.0000000000      0.0000000000       2
     3080  3082  3083  3084    1  180.0000000000    15.1670000000      2
     3080  3082  3083  3096    1  180.0000000000    15.1670000000      2
     3091  3082  3083  3084    1  180.0000000000    15.1670000000      2
     3091  3082  3083  3096    1  180.0000000000    15.1670000000      2
     3080  3082  3091  3092    1  180.0000000000    15.1670000000      2
     3083  3082  3091  3090    1  180.0000000000    15.1670000000      2
     3083  3082  3091  3092    1  180.0000000000    15.1670000000      2
     3076  3078  3080  3081    1  0.0000000000      0.5439200000       3
     3076  3078  3080  3082    1  0.0000000000      0.6508444444       3
     3076  3078  3080  3096    1  0.0000000000      2.1756800000       3
     3079  3078  3080  3081    1  0.0000000000      0.5020800000       3
     3079  3078  3080  3082    1  0.0000000000      0.6508444444       3
     3079  3078  3080  3096    1  0.0000000000      0.5439200000       3
     3100  3078  3080  3081    1  0.0000000000      0.5439200000       3
     3100  3078  3080  3082    1  0.0000000000      0.6508444444       3
     3100  3078  3080  3096    1  0.0000000000      2.1756800000       3
     3076  3078  3100  3098    1  0.0000000000      0.6508444444       3
     3076  3078  3100  3101    1  0.0000000000      0.6508444444       3
     3076  3078  3100  3102    1  0.0000000000      0.6508444444       3
     3079  3078  3100  3098    1  0.0000000000      0.5439200000       3
     3079  3078  3100  3101    1  0.0000000000      0.5020800000       3
     3079  3078  3100  3102    1  0.0000000000      0.5020800000       3
     3080  3078  3100  3098    1  0.0000000000      0.6508444444       3
     3080  3078  3100  3101    1  0.0000000000      0.6508444444       3
     3080  3078  3100  3102    1  0.0000000000      0.6508444444       3
     448   449   451   452     1  180.0000000000    15.1670000000      2
     448   449   451   481     1  180.0000000000    15.1670000000      2
     450   449   451   452     1  180.0000000000    15.1670000000      2
     450   449   451   481     1  180.0000000000    15.1670000000      2
     3082  3083  3084  3085    1  180.0000000000    15.1670000000      2
     3082  3083  3084  3089    1  180.0000000000    15.1670000000      2
     3096  3083  3084  3085    1  180.0000000000    15.1670000000      2
     3082  3083  3096  3080    1  180.0000000000    1.0041600000       2
     3082  3083  3096  3097    1  0.0000000000      0.0000000000       1
     3082  3083  3096  3098    1  180.0000000000    1.0041600000       2
     3084  3083  3096  3080    1  180.0000000000    1.0041600000       2
     3084  3083  3096  3097    1  0.0000000000      0.0000000000       1
     3084  3083  3096  3098    1  180.0000000000    1.0041600000       2
     419   448   449   450     1  180.0000000000    15.1670000000      2
     419   448   449   451     1  180.0000000000    15.1670000000      2
     447   448   449   450     1  180.0000000000    15.1670000000      2
     447   448   449   451     1  180.0000000000    15.1670000000      2
     2879  2878  2877  2882    1  0.0000000000      0.0000000000       2
     2880  2878  2877  2882    1  0.0000000000      0.0000000000       2
     2881  2878  2877  2882    1  0.0000000000      0.0000000000       2
     2873  2889  2891  2867    1  0.0000000000      2.1756800000       3
     2873  2889  2891  2892    1  0.0000000000      0.5439200000       3
     2873  2889  2891  2893    1  0.0000000000      2.1756800000       3
     2876  2889  2891  2867    1  0.0000000000      0.6508444444       3
     2876  2889  2891  2892    1  0.0000000000      0.6508444444       3
     2876  2889  2891  2893    1  0.0000000000      0.6508444444       3
     2890  2889  2891  2867    1  0.0000000000      0.5439200000       3
     2890  2889  2891  2892    1  0.0000000000      0.5020800000       3
     2890  2889  2891  2893    1  0.0000000000      0.5439200000       3
     425   447   448   419     1  180.0000000000    15.1670000000      2
     425   447   448   449     1  180.0000000000    15.1670000000      2
     482   447   448   419     1  180.0000000000    15.1670000000      2
     482   447   448   449     1  180.0000000000    15.1670000000      2
     425   447   482   481     1  180.0000000000    15.1670000000      2
     425   447   482   483     1  180.0000000000    15.1670000000      2
     448   447   482   481     1  180.0000000000    15.1670000000      2
     448   447   482   483     1  180.0000000000    15.1670000000      2
     2578  2580  2572  2574    1  0.0000000000      0.6508444444       3
     2572  2580  2578  2576    1  0.0000000000      0.6508444444       3
     419   424   425   426     1  180.0000000000    15.1670000000      2
     419   424   425   447     1  180.0000000000    15.1670000000      2
     445   424   425   426     1  180.0000000000    15.1670000000      2
     445   424   425   447     1  180.0000000000    15.1670000000      2
     419   424   445   444     1  180.0000000000    15.1670000000      2
     419   424   445   446     1  180.0000000000    15.1670000000      2
     425   424   445   444     1  180.0000000000    15.1670000000      2
     425   424   445   446     1  180.0000000000    15.1670000000      2
     3078  3080  3082  3083    1  180.0000000000    1.0041600000       2
     3078  3080  3082  3091    1  180.0000000000    1.0041600000       2
     3081  3080  3082  3083    1  0.0000000000      0.0000000000       1
     3081  3080  3082  3091    1  0.0000000000      0.0000000000       1
     3096  3080  3082  3083    1  180.0000000000    1.0041600000       2
     3096  3080  3082  3091    1  180.0000000000    1.0041600000       2
     3078  3080  3096  3083    1  0.0000000000      0.6508444444       3
     3078  3080  3096  3097    1  0.0000000000      0.6508444444       3
     3078  3080  3096  3098    1  0.0000000000      0.6508444444       3
     3081  3080  3096  3083    1  0.0000000000      0.6508444444       3
     3081  3080  3096  3097    1  0.0000000000      0.6508444444       3
     3081  3080  3096  3098    1  0.0000000000      0.6508444444       3
     3082  3080  3096  3083    1  0.0000000000      0.6508444444       3
     3082  3080  3096  3097    1  0.0000000000      0.6508444444       3
     3082  3080  3096  3098    1  0.0000000000      0.6508444444       3
     3089  3084  3083  3096    1  180.0000000000    15.1670000000      2
     3083  3084  3085  3086    1  0.0000000000      0.0000000000       2
     3083  3084  3085  3087    1  0.0000000000      0.0000000000       2
     3083  3084  3085  3088    1  0.0000000000      0.0000000000       2
     3083  3084  3089  3090    1  180.0000000000    15.1670000000      2
     3085  3084  3089  3090    1  180.0000000000    15.1670000000      2
     3083  3084  3089  782     1  180.0000000000    15.1670000000      2
     3085  3084  3089  782     1  180.0000000000    15.1670000000      2
     6523  6553  6554  6519    1  180.0000000000    15.1670000000      2
     6523  6553  6554  6555    1  180.0000000000    15.1670000000      2
     6526  6553  6554  6519    1  180.0000000000    15.1670000000      2
     6526  6553  6554  6555    1  180.0000000000    15.1670000000      2
     428   444   445   424     1  180.0000000000    15.1670000000      2
     428   444   445   446     1  180.0000000000    15.1670000000      2
     431   444   445   424     1  180.0000000000    15.1670000000      2
     431   444   445   446     1  180.0000000000    15.1670000000      2
     2741  2740  2739  2744    1  0.0000000000      0.0000000000       2
     2742  2740  2739  2744    1  0.0000000000      0.0000000000       2
     2743  2740  2739  2744    1  0.0000000000      0.0000000000       2
     2725  2726  2728  2729    1  180.0000000000    15.1670000000      2
     2725  2726  2728  2758    1  180.0000000000    15.1670000000      2
     2727  2726  2728  2729    1  180.0000000000    15.1670000000      2
     2727  2726  2728  2758    1  180.0000000000    15.1670000000      2
     2737  2738  2739  2740    1  180.0000000000    15.1670000000      2
     2737  2738  2739  2744    1  180.0000000000    15.1670000000      2
     2751  2738  2739  2740    1  180.0000000000    15.1670000000      2
     2737  2738  2751  2735    1  180.0000000000    1.0041600000       2
     2737  2738  2751  2752    1  0.0000000000      0.0000000000       1
     2737  2738  2751  2753    1  180.0000000000    1.0041600000       2
     2739  2738  2751  2735    1  180.0000000000    1.0041600000       2
     2739  2738  2751  2752    1  0.0000000000      0.0000000000       1
     2739  2738  2751  2753    1  180.0000000000    1.0041600000       2
     2738  2739  2740  2741    1  0.0000000000      0.0000000000       2
     2738  2739  2740  2742    1  0.0000000000      0.0000000000       2
     2738  2739  2740  2743    1  0.0000000000      0.0000000000       2
     2738  2739  2744  2745    1  180.0000000000    15.1670000000      2
     2740  2739  2744  2745    1  180.0000000000    15.1670000000      2
     2744  2739  2738  2751    1  180.0000000000    15.1670000000      2
     2740  2739  2744  435     1  180.0000000000    15.1670000000      2
     2738  2739  2744  435     1  180.0000000000    15.1670000000      2
     2739  2744  2745  2746    1  180.0000000000    15.1670000000      2
     2739  2744  2745  437     1  180.0000000000    15.1670000000      2
     2745  2744  435   436     1  0.0000000000      0.0000000000       1
     2739  2744  435   436     1  0.0000000000      0.0000000000       1
     2745  2744  435   437     1  180.0000000000    1.0041600000       2
     2739  2744  435   437     1  180.0000000000    1.0041600000       2
     2745  2744  435   433     1  180.0000000000    1.0041600000       2
     2739  2744  435   433     1  180.0000000000    1.0041600000       2
     5708  5707  5706  5711    1  0.0000000000      0.0000000000       2
     5709  5707  5706  5711    1  0.0000000000      0.0000000000       2
     5710  5707  5706  5711    1  0.0000000000      0.0000000000       2
     5711  5706  5705  5718    1  180.0000000000    15.1670000000      2
     5705  5706  5707  5708    1  0.0000000000      0.0000000000       2
     5705  5706  5707  5709    1  0.0000000000      0.0000000000       2
     5705  5706  5707  5710    1  0.0000000000      0.0000000000       2
     5705  5706  5711  5712    1  180.0000000000    15.1670000000      2
     5707  5706  5711  5712    1  180.0000000000    15.1670000000      2
     5705  5706  5711  90      1  180.0000000000    15.1670000000      2
     5707  5706  5711  90      1  180.0000000000    15.1670000000      2
     2726  2728  2729  2730    1  0.0000000000      0.0000000000       1
     2726  2728  2729  2731    1  180.0000000000    1.0041600000       2
     2726  2728  2729  2753    1  180.0000000000    1.0041600000       2
     2758  2728  2729  2730    1  0.0000000000      0.0000000000       1
     2758  2728  2729  2731    1  180.0000000000    1.0041600000       2
     2758  2728  2729  2753    1  180.0000000000    1.0041600000       2
     2726  2728  2758  2731    1  180.0000000000    15.1670000000      2
     2726  2728  2758  2759    1  180.0000000000    15.1670000000      2
     2729  2728  2758  2731    1  180.0000000000    15.1670000000      2
     2729  2728  2758  2759    1  180.0000000000    15.1670000000      2
     2735  2751  2753  2729    1  0.0000000000      2.1756800000       3
     2735  2751  2753  2754    1  0.0000000000      0.5439200000       3
     2735  2751  2753  2755    1  0.0000000000      2.1756800000       3
     2738  2751  2753  2729    1  0.0000000000      0.6508444444       3
     2738  2751  2753  2754    1  0.0000000000      0.6508444444       3
     2738  2751  2753  2755    1  0.0000000000      0.6508444444       3
     2752  2751  2753  2729    1  0.0000000000      0.5439200000       3
     2752  2751  2753  2754    1  0.0000000000      0.5020800000       3
     2752  2751  2753  2755    1  0.0000000000      0.5439200000       3
     2728  2758  2759  2724    1  180.0000000000    15.1670000000      2
     2728  2758  2759  2760    1  180.0000000000    15.1670000000      2
     2731  2758  2759  2724    1  180.0000000000    15.1670000000      2
     2731  2758  2759  2760    1  180.0000000000    15.1670000000      2
     2728  2729  2731  2732    1  0.0000000000      0.6508444444       3
     2728  2729  2731  2733    1  0.0000000000      0.6508444444       3
     2728  2729  2731  2758    1  0.0000000000      0.6508444444       3
     2730  2729  2731  2732    1  0.0000000000      0.6508444444       3
     2730  2729  2731  2733    1  0.0000000000      0.6508444444       3
     2730  2729  2731  2758    1  0.0000000000      0.6508444444       3
     2753  2729  2731  2732    1  0.0000000000      0.6508444444       3
     2753  2729  2731  2733    1  0.0000000000      0.6508444444       3
     2753  2729  2731  2758    1  0.0000000000      0.6508444444       3
     2728  2729  2753  2751    1  0.0000000000      0.6508444444       3
     2728  2729  2753  2754    1  0.0000000000      0.6508444444       3
     2728  2729  2753  2755    1  0.0000000000      0.6508444444       3
     2730  2729  2753  2751    1  0.0000000000      0.5439200000       3
     2730  2729  2753  2754    1  0.0000000000      0.5020800000       3
     2730  2729  2753  2755    1  0.0000000000      0.5439200000       3
     2731  2729  2753  2751    1  0.0000000000      2.1756800000       3
     2731  2729  2753  2754    1  0.0000000000      0.5439200000       3
     2731  2729  2753  2755    1  0.0000000000      2.1756800000       3
     2729  2753  2755  2733    1  0.0000000000      0.6508444444       3
     2729  2753  2755  2756    1  0.0000000000      0.6508444444       3
     2729  2753  2755  2757    1  0.0000000000      0.6508444444       3
     2751  2753  2755  2733    1  0.0000000000      0.6508444444       3
     2751  2753  2755  2756    1  0.0000000000      0.6508444444       3
     2751  2753  2755  2757    1  0.0000000000      0.6508444444       3
     2754  2753  2755  2733    1  0.0000000000      0.5439200000       3
     2754  2753  2755  2756    1  0.0000000000      0.5020800000       3
     2754  2753  2755  2757    1  0.0000000000      0.5020800000       3
     6888  6887  6886  6885    1  0.0000000000      0.0000000000       2
     6889  6887  6886  6885    1  0.0000000000      0.0000000000       2
     6890  6887  6886  6885    1  0.0000000000      0.0000000000       2
     2729  2731  2733  2734    1  0.0000000000      0.5439200000       3
     2729  2731  2733  2735    1  0.0000000000      2.1756800000       3
     2729  2731  2733  2755    1  0.0000000000      2.1756800000       3
     2732  2731  2733  2734    1  0.0000000000      0.5020800000       3
     2732  2731  2733  2735    1  0.0000000000      0.5439200000       3
     2732  2731  2733  2755    1  0.0000000000      0.5439200000       3
     2758  2731  2733  2734    1  0.0000000000      0.6508444444       3
     2758  2731  2733  2735    1  0.0000000000      0.6508444444       3
     2758  2731  2733  2755    1  0.0000000000      0.6508444444       3
     2729  2731  2758  2728    1  180.0000000000    1.0041600000       2
     2729  2731  2758  2759    1  180.0000000000    1.0041600000       2
     2732  2731  2758  2728    1  0.0000000000      0.0000000000       1
     2732  2731  2758  2759    1  0.0000000000      0.0000000000       1
     2733  2731  2758  2728    1  180.0000000000    1.0041600000       2
     2733  2731  2758  2759    1  180.0000000000    1.0041600000       2
     2731  2733  2735  2736    1  0.0000000000      0.5439200000       3
     2731  2733  2735  2737    1  0.0000000000      0.6508444444       3
     2731  2733  2735  2751    1  0.0000000000      2.1756800000       3
     2734  2733  2735  2736    1  0.0000000000      0.5020800000       3
     2734  2733  2735  2737    1  0.0000000000      0.6508444444       3
     2734  2733  2735  2751    1  0.0000000000      0.5439200000       3
     2755  2733  2735  2736    1  0.0000000000      0.5439200000       3
     2755  2733  2735  2737    1  0.0000000000      0.6508444444       3
     2755  2733  2735  2751    1  0.0000000000      2.1756800000       3
     2731  2733  2755  2753    1  0.0000000000      0.6508444444       3
     2731  2733  2755  2756    1  0.0000000000      0.6508444444       3
     2731  2733  2755  2757    1  0.0000000000      0.6508444444       3
     2734  2733  2755  2753    1  0.0000000000      0.5439200000       3
     2734  2733  2755  2756    1  0.0000000000      0.5020800000       3
     2734  2733  2755  2757    1  0.0000000000      0.5020800000       3
     2735  2733  2755  2753    1  0.0000000000      0.6508444444       3
     2735  2733  2755  2756    1  0.0000000000      0.6508444444       3
     2735  2733  2755  2757    1  0.0000000000      0.6508444444       3
     433   435   437   438     1  0.0000000000      0.6508444444       3
     433   435   437   439     1  0.0000000000      0.6508444444       3
     436   435   437   438     1  0.0000000000      0.6508444444       3
     433   435   437   2745    1  0.0000000000      0.6508444444       3
     2744  435   437   438     1  0.0000000000      0.6508444444       3
     2735  2737  2738  2739    1  180.0000000000    15.1670000000      2
     2735  2737  2738  2751    1  180.0000000000    15.1670000000      2
     2746  2737  2738  2739    1  180.0000000000    15.1670000000      2
     2746  2737  2738  2751    1  180.0000000000    15.1670000000      2
     2735  2737  2746  2747    1  180.0000000000    15.1670000000      2
     2738  2737  2746  2745    1  180.0000000000    15.1670000000      2
     2738  2737  2746  2747    1  180.0000000000    15.1670000000      2
     2733  2735  2737  2738    1  180.0000000000    1.0041600000       2
     2733  2735  2737  2746    1  180.0000000000    1.0041600000       2
     2736  2735  2737  2738    1  0.0000000000      0.0000000000       1
     2736  2735  2737  2746    1  0.0000000000      0.0000000000       1
     2751  2735  2737  2738    1  180.0000000000    1.0041600000       2
     2751  2735  2737  2746    1  180.0000000000    1.0041600000       2
     2733  2735  2751  2738    1  0.0000000000      0.6508444444       3
     2733  2735  2751  2752    1  0.0000000000      0.6508444444       3
     2733  2735  2751  2753    1  0.0000000000      0.6508444444       3
     2736  2735  2751  2738    1  0.0000000000      0.6508444444       3
     2736  2735  2751  2752    1  0.0000000000      0.6508444444       3
     2736  2735  2751  2753    1  0.0000000000      0.6508444444       3
     2737  2735  2751  2738    1  0.0000000000      0.6508444444       3
     2737  2735  2751  2752    1  0.0000000000      0.6508444444       3
     2737  2735  2751  2753    1  0.0000000000      0.6508444444       3
     5660  5659  5663  5664    1  0.0000000000      0.5439200000       3
     5660  5659  5663  5668    1  0.0000000000      0.6508444444       3
     5660  5659  5663  5692    1  0.0000000000      0.6508444444       3
     5661  5659  5663  5664    1  0.0000000000      0.5439200000       3
     5661  5659  5663  5668    1  0.0000000000      0.6508444444       3
     5661  5659  5663  5692    1  0.0000000000      0.6508444444       3
     5662  5659  5663  5664    1  0.0000000000      0.5439200000       3
     5662  5659  5663  5668    1  0.0000000000      0.6508444444       3
     5662  5659  5663  5692    1  0.0000000000      0.6508444444       3
     5702  5718  5720  5696    1  0.0000000000      2.1756800000       3
     5702  5718  5720  5721    1  0.0000000000      0.5439200000       3
     5702  5718  5720  5722    1  0.0000000000      2.1756800000       3
     5705  5718  5720  5696    1  0.0000000000      0.6508444444       3
     5705  5718  5720  5721    1  0.0000000000      0.6508444444       3
     5705  5718  5720  5722    1  0.0000000000      0.6508444444       3
     5719  5718  5720  5696    1  0.0000000000      0.5439200000       3
     5719  5718  5720  5721    1  0.0000000000      0.5020800000       3
     5719  5718  5720  5722    1  0.0000000000      0.5439200000       3
     5704  5705  5706  5707    1  180.0000000000    15.1670000000      2
     5704  5705  5706  5711    1  180.0000000000    15.1670000000      2
     5718  5705  5706  5707    1  180.0000000000    15.1670000000      2
     5704  5705  5718  5702    1  180.0000000000    1.0041600000       2
     5704  5705  5718  5719    1  0.0000000000      0.0000000000       1
     5704  5705  5718  5720    1  180.0000000000    1.0041600000       2
     5706  5705  5718  5702    1  180.0000000000    1.0041600000       2
     5706  5705  5718  5719    1  0.0000000000      0.0000000000       1
     5706  5705  5718  5720    1  180.0000000000    1.0041600000       2
     5696  5720  5722  5700    1  0.0000000000      0.6508444444       3
     5696  5720  5722  5723    1  0.0000000000      0.6508444444       3
     5696  5720  5722  5724    1  0.0000000000      0.6508444444       3
     5718  5720  5722  5700    1  0.0000000000      0.6508444444       3
     5718  5720  5722  5723    1  0.0000000000      0.6508444444       3
     5718  5720  5722  5724    1  0.0000000000      0.6508444444       3
     5721  5720  5722  5700    1  0.0000000000      0.5439200000       3
     5721  5720  5722  5723    1  0.0000000000      0.5020800000       3
     5721  5720  5722  5724    1  0.0000000000      0.5020800000       3
     2744  2745  2746  2737    1  180.0000000000    15.1670000000      2
     437   2745  2744  435     1  180.0000000000    15.1670000000      2
     2744  2745  437   435     1  180.0000000000    1.0041600000       2
     2746  2745  437   435     1  180.0000000000    1.0041600000       2
     2744  2745  437   438     1  0.0000000000      0.0000000000       1
     2746  2745  437   438     1  0.0000000000      0.0000000000       1
     2744  2745  437   439     1  180.0000000000    1.0041600000       2
     2746  2745  437   439     1  180.0000000000    1.0041600000       2
     2746  2745  2744  435     1  180.0000000000    15.1670000000      2
     5706  5711  5712  5713    1  180.0000000000    15.1670000000      2
     90    5711  5712  92      1  180.0000000000    15.1670000000      2
     5706  5711  90    88      1  180.0000000000    1.0041600000       2
     5712  5711  90    88      1  180.0000000000    1.0041600000       2
     5706  5711  90    91      1  0.0000000000      0.0000000000       1
     5712  5711  90    91      1  0.0000000000      0.0000000000       1
     5706  5711  90    92      1  180.0000000000    1.0041600000       2
     5712  5711  90    92      1  180.0000000000    1.0041600000       2
     5706  5711  5712  92      1  180.0000000000    15.1670000000      2
     2696  2725  2726  2727    1  180.0000000000    15.1670000000      2
     2696  2725  2726  2728    1  180.0000000000    15.1670000000      2
     2724  2725  2726  2727    1  180.0000000000    15.1670000000      2
     2724  2725  2726  2728    1  180.0000000000    15.1670000000      2
     6524  6548  6550  6528    1  0.0000000000      0.6508444444       3
     6524  6548  6550  6551    1  0.0000000000      0.6508444444       3
     6524  6548  6550  6552    1  0.0000000000      0.6508444444       3
     6546  6548  6550  6528    1  0.0000000000      0.6508444444       3
     6546  6548  6550  6551    1  0.0000000000      0.6508444444       3
     6546  6548  6550  6552    1  0.0000000000      0.6508444444       3
     6549  6548  6550  6528    1  0.0000000000      0.5439200000       3
     6549  6548  6550  6551    1  0.0000000000      0.5020800000       3
     6549  6548  6550  6552    1  0.0000000000      0.5020800000       3
     88    90    92    93      1  0.0000000000      0.6508444444       3
     88    90    92    94      1  0.0000000000      0.6508444444       3
     91    90    92    93      1  0.0000000000      0.6508444444       3
     5711  90    92    93      1  0.0000000000      0.6508444444       3
     5711  90    92    5712    1  0.0000000000      0.6508444444       3
     88    90    92    5712    1  0.0000000000      0.6508444444       3
     5659  5663  5664  5665    1  0.0000000000      0.5439200000       3
     5659  5663  5664  5666    1  0.0000000000      0.5439200000       3
     5659  5663  5664  5667    1  0.0000000000      0.5439200000       3
     5668  5663  5664  5665    1  0.0000000000      0.6508444444       3
     5668  5663  5664  5666    1  0.0000000000      0.6508444444       3
     5668  5663  5664  5667    1  0.0000000000      0.6508444444       3
     5692  5663  5664  5665    1  0.0000000000      0.6508444444       3
     5692  5663  5664  5666    1  0.0000000000      0.6508444444       3
     5692  5663  5664  5667    1  0.0000000000      0.6508444444       3
     5659  5663  5668  5669    1  0.0000000000      0.0000000000       2
     5659  5663  5668  5689    1  180.0000000000    1.0041600000       2
     5664  5663  5668  5669    1  0.0000000000      0.0000000000       2
     5664  5663  5668  5689    1  180.0000000000    1.0041600000       2
     5692  5663  5668  5669    1  0.0000000000      0.0000000000       2
     5692  5663  5668  5689    1  180.0000000000    0.0000000000       2
     5659  5663  5692  5691    1  0.0000000000      0.0000000000       2
     5659  5663  5692  5693    1  180.0000000000    1.0041600000       2
     5664  5663  5692  5691    1  0.0000000000      0.0000000000       2
     5664  5663  5692  5693    1  180.0000000000    1.0041600000       2
     5668  5663  5692  5691    1  0.0000000000      0.0000000000       2
     5668  5663  5692  5693    1  180.0000000000    0.0000000000       2
     5692  5693  5695  5696    1  180.0000000000    15.1670000000      2
     5692  5693  5695  5725    1  180.0000000000    15.1670000000      2
     5694  5693  5695  5696    1  180.0000000000    15.1670000000      2
     5694  5693  5695  5725    1  180.0000000000    15.1670000000      2
     5693  5695  5696  5697    1  0.0000000000      0.0000000000       1
     5693  5695  5696  5698    1  180.0000000000    1.0041600000       2
     5693  5695  5696  5720    1  180.0000000000    1.0041600000       2
     5725  5695  5696  5697    1  0.0000000000      0.0000000000       1
     5725  5695  5696  5698    1  180.0000000000    1.0041600000       2
     5725  5695  5696  5720    1  180.0000000000    1.0041600000       2
     5693  5695  5725  5698    1  180.0000000000    15.1670000000      2
     5693  5695  5725  5726    1  180.0000000000    15.1670000000      2
     5696  5695  5725  5698    1  180.0000000000    15.1670000000      2
     5696  5695  5725  5726    1  180.0000000000    15.1670000000      2
     2702  2724  2725  2696    1  180.0000000000    15.1670000000      2
     2702  2724  2725  2726    1  180.0000000000    15.1670000000      2
     2759  2724  2725  2696    1  180.0000000000    15.1670000000      2
     2759  2724  2725  2726    1  180.0000000000    15.1670000000      2
     2702  2724  2759  2758    1  180.0000000000    15.1670000000      2
     2702  2724  2759  2760    1  180.0000000000    15.1670000000      2
     2725  2724  2759  2758    1  180.0000000000    15.1670000000      2
     2725  2724  2759  2760    1  180.0000000000    15.1670000000      2
     86    88    90    91      1  0.0000000000      0.5439200000       3
     86    88    90    92      1  0.0000000000      2.1756800000       3
     89    88    90    91      1  0.0000000000      0.5020800000       3
     89    88    90    92      1  0.0000000000      0.5439200000       3
     96    88    90    91      1  0.0000000000      0.5439200000       3
     96    88    90    92      1  0.0000000000      2.1756800000       3
     86    88    96    94      1  0.0000000000      0.6508444444       3
     86    88    96    97      1  0.0000000000      0.6508444444       3
     86    88    96    98      1  0.0000000000      0.6508444444       3
     89    88    96    94      1  0.0000000000      0.5439200000       3
     89    88    96    97      1  0.0000000000      0.5020800000       3
     89    88    96    98      1  0.0000000000      0.5020800000       3
     90    88    96    97      1  0.0000000000      0.6508444444       3
     90    88    96    98      1  0.0000000000      0.6508444444       3
     90    88    86    84      1  0.0000000000      2.1756800000       3
     90    88    86    87      1  0.0000000000      0.5439200000       3
     90    88    86    99      1  0.0000000000      0.6508444444       3
     89    88    90    5711    1  0.0000000000      0.6508444444       3
     96    88    90    5711    1  0.0000000000      0.6508444444       3
     86    88    90    5711    1  0.0000000000      0.6508444444       3
     5265  5267  5269  5259    1  0.0000000000      0.6508444444       3
     5265  5267  5269  5270    1  0.0000000000      0.5439200000       3
     5265  5267  5269  5271    1  0.0000000000      2.1756800000       3
     5268  5267  5269  5259    1  0.0000000000      0.6508444444       3
     5268  5267  5269  5270    1  0.0000000000      0.5020800000       3
     5268  5267  5269  5271    1  0.0000000000      0.5439200000       3
     5700  5702  5704  5705    1  180.0000000000    1.0041600000       2
     5700  5702  5704  5713    1  180.0000000000    1.0041600000       2
     5703  5702  5704  5705    1  0.0000000000      0.0000000000       1
     5703  5702  5704  5713    1  0.0000000000      0.0000000000       1
     5718  5702  5704  5705    1  180.0000000000    1.0041600000       2
     5718  5702  5704  5713    1  180.0000000000    1.0041600000       2
     5700  5702  5718  5705    1  0.0000000000      0.6508444444       3
     5700  5702  5718  5719    1  0.0000000000      0.6508444444       3
     5700  5702  5718  5720    1  0.0000000000      0.6508444444       3
     5703  5702  5718  5705    1  0.0000000000      0.6508444444       3
     5703  5702  5718  5719    1  0.0000000000      0.6508444444       3
     5703  5702  5718  5720    1  0.0000000000      0.6508444444       3
     5704  5702  5718  5705    1  0.0000000000      0.6508444444       3
     5704  5702  5718  5719    1  0.0000000000      0.6508444444       3
     5704  5702  5718  5720    1  0.0000000000      0.6508444444       3
     6521  6523  6524  6525    1  0.0000000000      0.0000000000       1
     6521  6523  6524  6526    1  180.0000000000    1.0041600000       2
     6521  6523  6524  6548    1  180.0000000000    1.0041600000       2
     6553  6523  6524  6525    1  0.0000000000      0.0000000000       1
     6553  6523  6524  6526    1  180.0000000000    1.0041600000       2
     6553  6523  6524  6548    1  180.0000000000    1.0041600000       2
     6521  6523  6553  6526    1  180.0000000000    15.1670000000      2
     6521  6523  6553  6554    1  180.0000000000    15.1670000000      2
     6524  6523  6553  6526    1  180.0000000000    15.1670000000      2
     6524  6523  6553  6554    1  180.0000000000    15.1670000000      2
     5256  5258  5259  5260    1  0.0000000000      0.0000000000       1
     5256  5258  5259  5261    1  180.0000000000    1.0041600000       2
     5256  5258  5259  5269    1  180.0000000000    1.0041600000       2
     5274  5258  5259  5260    1  0.0000000000      0.0000000000       1
     5274  5258  5259  5261    1  180.0000000000    1.0041600000       2
     5274  5258  5259  5269    1  180.0000000000    1.0041600000       2
     5256  5258  5274  5261    1  180.0000000000    15.1670000000      2
     5256  5258  5274  5275    1  180.0000000000    15.1670000000      2
     5259  5258  5274  5261    1  180.0000000000    15.1670000000      2
     5259  5258  5274  5275    1  180.0000000000    15.1670000000      2
     5258  5259  5261  5262    1  0.0000000000      0.6508444444       3
     5258  5259  5261  5263    1  0.0000000000      0.6508444444       3
     5258  5259  5261  5274    1  0.0000000000      0.6508444444       3
     5260  5259  5261  5262    1  0.0000000000      0.6508444444       3
     5260  5259  5261  5263    1  0.0000000000      0.6508444444       3
     5260  5259  5261  5274    1  0.0000000000      0.6508444444       3
     5269  5259  5261  5262    1  0.0000000000      0.6508444444       3
     5269  5259  5261  5263    1  0.0000000000      0.6508444444       3
     5269  5259  5261  5274    1  0.0000000000      0.6508444444       3
     5258  5259  5269  5267    1  0.0000000000      0.6508444444       3
     5258  5259  5269  5270    1  0.0000000000      0.6508444444       3
     5258  5259  5269  5271    1  0.0000000000      0.6508444444       3
     5260  5259  5269  5267    1  0.0000000000      0.5439200000       3
     5260  5259  5269  5270    1  0.0000000000      0.5020800000       3
     5260  5259  5269  5271    1  0.0000000000      0.5439200000       3
     5261  5259  5269  5267    1  0.0000000000      2.1756800000       3
     5261  5259  5269  5270    1  0.0000000000      0.5439200000       3
     5261  5259  5269  5271    1  0.0000000000      2.1756800000       3
     6317  6341  6343  6321    1  0.0000000000      0.6508444444       3
     6317  6341  6343  6344    1  0.0000000000      0.6508444444       3
     6317  6341  6343  6345    1  0.0000000000      0.6508444444       3
     6339  6341  6343  6321    1  0.0000000000      0.6508444444       3
     6339  6341  6343  6344    1  0.0000000000      0.6508444444       3
     6339  6341  6343  6345    1  0.0000000000      0.6508444444       3
     6342  6341  6343  6321    1  0.0000000000      0.5439200000       3
     6342  6341  6343  6344    1  0.0000000000      0.5020800000       3
     6342  6341  6343  6345    1  0.0000000000      0.5020800000       3
     5255  5256  5258  5259    1  180.0000000000    15.1670000000      2
     5255  5256  5258  5274    1  180.0000000000    15.1670000000      2
     5257  5256  5258  5259    1  180.0000000000    15.1670000000      2
     5257  5256  5258  5274    1  180.0000000000    15.1670000000      2
     5259  5269  5271  5263    1  0.0000000000      0.6508444444       3
     5259  5269  5271  5272    1  0.0000000000      0.6508444444       3
     5259  5269  5271  5273    1  0.0000000000      0.6508444444       3
     5267  5269  5271  5263    1  0.0000000000      2.1756800000       3
     5267  5269  5271  5272    1  0.0000000000      0.5439200000       3
     5267  5269  5271  5273    1  0.0000000000      0.5439200000       3
     5270  5269  5271  5263    1  0.0000000000      0.5439200000       3
     5270  5269  5271  5272    1  0.0000000000      0.5020800000       3
     5270  5269  5271  5273    1  0.0000000000      0.5020800000       3
     2737  2746  2747  2748    1  0.0000000000      0.0000000000       2
     2737  2746  2747  2749    1  0.0000000000      0.0000000000       2
     2737  2746  2747  2750    1  0.0000000000      0.0000000000       2
     2747  2746  2745  2744    1  180.0000000000    15.1670000000      2
     2745  2746  2737  2735    1  180.0000000000    15.1670000000      2
     2747  2746  2745  437     1  180.0000000000    15.1670000000      2
     2737  2746  2745  437     1  180.0000000000    15.1670000000      2
     6530  6546  6548  6524    1  0.0000000000      2.1756800000       3
     6530  6546  6548  6549    1  0.0000000000      0.5439200000       3
     6530  6546  6548  6550    1  0.0000000000      2.1756800000       3
     6533  6546  6548  6524    1  0.0000000000      0.6508444444       3
     6533  6546  6548  6549    1  0.0000000000      0.6508444444       3
     6533  6546  6548  6550    1  0.0000000000      0.6508444444       3
     6547  6546  6548  6524    1  0.0000000000      0.5439200000       3
     6547  6546  6548  6549    1  0.0000000000      0.5020800000       3
     6547  6546  6548  6550    1  0.0000000000      0.5439200000       3
     6670  6679  6680  6681    1  0.0000000000      0.0000000000       2
     6670  6679  6680  6682    1  0.0000000000      0.0000000000       2
     6670  6679  6680  6683    1  0.0000000000      0.0000000000       2
     6680  6679  6678  6677    1  180.0000000000    15.1670000000      2
     6678  6679  6670  6668    1  180.0000000000    15.1670000000      2
     6680  6679  6678  504     1  180.0000000000    15.1670000000      2
     6670  6679  6678  504     1  180.0000000000    15.1670000000      2
     6668  6684  6686  6662    1  0.0000000000      2.1756800000       3
     6668  6684  6686  6687    1  0.0000000000      0.5439200000       3
     6668  6684  6686  6688    1  0.0000000000      2.1756800000       3
     6671  6684  6686  6662    1  0.0000000000      0.6508444444       3
     6671  6684  6686  6687    1  0.0000000000      0.6508444444       3
     6671  6684  6686  6688    1  0.0000000000      0.6508444444       3
     6685  6684  6686  6662    1  0.0000000000      0.5439200000       3
     6685  6684  6686  6687    1  0.0000000000      0.5020800000       3
     6685  6684  6686  6688    1  0.0000000000      0.5439200000       3
     6662  6664  6666  6667    1  0.0000000000      0.5439200000       3
     6662  6664  6666  6668    1  0.0000000000      2.1756800000       3
     6662  6664  6666  6688    1  0.0000000000      2.1756800000       3
     6665  6664  6666  6667    1  0.0000000000      0.5020800000       3
     6665  6664  6666  6668    1  0.0000000000      0.5439200000       3
     6665  6664  6666  6688    1  0.0000000000      0.5439200000       3
     6691  6664  6666  6667    1  0.0000000000      0.6508444444       3
     6691  6664  6666  6668    1  0.0000000000      0.6508444444       3
     6691  6664  6666  6688    1  0.0000000000      0.6508444444       3
     6662  6664  6691  6661    1  180.0000000000    1.0041600000       2
     6662  6664  6691  6692    1  180.0000000000    1.0041600000       2
     6665  6664  6691  6661    1  0.0000000000      0.0000000000       1
     6665  6664  6691  6692    1  0.0000000000      0.0000000000       1
     6666  6664  6691  6661    1  180.0000000000    1.0041600000       2
     6666  6664  6691  6692    1  180.0000000000    1.0041600000       2
     6532  6533  6534  6535    1  180.0000000000    15.1670000000      2
     6532  6533  6534  6539    1  180.0000000000    15.1670000000      2
     6546  6533  6534  6535    1  180.0000000000    15.1670000000      2
     6546  6533  6534  6539    1  180.0000000000    15.1670000000      2
     6532  6533  6546  6530    1  180.0000000000    1.0041600000       2
     6532  6533  6546  6547    1  0.0000000000      0.0000000000       1
     6532  6533  6546  6548    1  180.0000000000    1.0041600000       2
     6534  6533  6546  6530    1  180.0000000000    1.0041600000       2
     6534  6533  6546  6547    1  0.0000000000      0.0000000000       1
     6534  6533  6546  6548    1  180.0000000000    1.0041600000       2
     6668  6670  6671  6672    1  180.0000000000    15.1670000000      2
     6668  6670  6671  6684    1  180.0000000000    15.1670000000      2
     6679  6670  6671  6672    1  180.0000000000    15.1670000000      2
     6679  6670  6671  6684    1  180.0000000000    15.1670000000      2
     6668  6670  6679  6680    1  180.0000000000    15.1670000000      2
     6671  6670  6679  6678    1  180.0000000000    15.1670000000      2
     6671  6670  6679  6680    1  180.0000000000    15.1670000000      2
     6532  6541  6542  6543    1  0.0000000000      0.0000000000       2
     6532  6541  6542  6544    1  0.0000000000      0.0000000000       2
     6532  6541  6542  6545    1  0.0000000000      0.0000000000       2
     6540  6541  6542  6543    1  0.0000000000      0.0000000000       2
     6540  6541  6542  6544    1  0.0000000000      0.0000000000       2
     6540  6541  6542  6545    1  0.0000000000      0.0000000000       2
     431   433   435   436     1  0.0000000000      0.5439200000       3
     431   433   435   437     1  0.0000000000      2.1756800000       3
     434   433   435   436     1  0.0000000000      0.5020800000       3
     434   433   435   437     1  0.0000000000      0.5439200000       3
     441   433   435   436     1  0.0000000000      0.5439200000       3
     441   433   435   437     1  0.0000000000      2.1756800000       3
     431   433   441   439     1  0.0000000000      0.6508444444       3
     431   433   441   442     1  0.0000000000      0.6508444444       3
     431   433   441   443     1  0.0000000000      0.6508444444       3
     434   433   441   439     1  0.0000000000      0.5439200000       3
     434   433   441   442     1  0.0000000000      0.5020800000       3
     434   433   441   443     1  0.0000000000      0.5020800000       3
     435   433   441   442     1  0.0000000000      0.6508444444       3
     435   433   441   443     1  0.0000000000      0.6508444444       3
     435   433   431   429     1  0.0000000000      2.1756800000       3
     435   433   431   432     1  0.0000000000      0.5439200000       3
     435   433   431   444     1  0.0000000000      0.6508444444       3
     434   433   435   2744    1  0.0000000000      0.6508444444       3
     441   433   435   2744    1  0.0000000000      0.6508444444       3
     431   433   435   2744    1  0.0000000000      0.6508444444       3
     439   437   435   436     1  0.0000000000      0.6508444444       3
     2745  437   435   436     1  0.0000000000      0.6508444444       3
     2745  437   435   2744    1  0.0000000000      0.6508444444       3
     439   437   435   2744    1  0.0000000000      0.6508444444       3
     6681  6680  6679  6678    1  0.0000000000      0.0000000000       2
     6682  6680  6679  6678    1  0.0000000000      0.0000000000       2
     6683  6680  6679  6678    1  0.0000000000      0.0000000000       2
     6528  6530  6532  6533    1  180.0000000000    1.0041600000       2
     6528  6530  6532  6541    1  180.0000000000    1.0041600000       2
     6531  6530  6532  6533    1  0.0000000000      0.0000000000       1
     6531  6530  6532  6541    1  0.0000000000      0.0000000000       1
     6546  6530  6532  6533    1  180.0000000000    1.0041600000       2
     6546  6530  6532  6541    1  180.0000000000    1.0041600000       2
     6528  6530  6546  6533    1  0.0000000000      0.6508444444       3
     6528  6530  6546  6547    1  0.0000000000      0.6508444444       3
     6528  6530  6546  6548    1  0.0000000000      0.6508444444       3
     6531  6530  6546  6533    1  0.0000000000      0.6508444444       3
     6531  6530  6546  6547    1  0.0000000000      0.6508444444       3
     6531  6530  6546  6548    1  0.0000000000      0.6508444444       3
     6532  6530  6546  6533    1  0.0000000000      0.6508444444       3
     6532  6530  6546  6547    1  0.0000000000      0.6508444444       3
     6532  6530  6546  6548    1  0.0000000000      0.6508444444       3
     2748  2747  2746  2745    1  0.0000000000      0.0000000000       2
     2749  2747  2746  2745    1  0.0000000000      0.0000000000       2
     2750  2747  2746  2745    1  0.0000000000      0.0000000000       2
     6677  6672  6671  6684    1  180.0000000000    15.1670000000      2
     6671  6672  6673  6674    1  0.0000000000      0.0000000000       2
     6671  6672  6673  6675    1  0.0000000000      0.0000000000       2
     6671  6672  6673  6676    1  0.0000000000      0.0000000000       2
     6671  6672  6677  6678    1  180.0000000000    15.1670000000      2
     6673  6672  6677  6678    1  180.0000000000    15.1670000000      2
     6671  6672  6677  506     1  180.0000000000    15.1670000000      2
     6673  6672  6677  506     1  180.0000000000    15.1670000000      2
     6661  6691  6692  6657    1  180.0000000000    15.1670000000      2
     6661  6691  6692  6693    1  180.0000000000    15.1670000000      2
     6664  6691  6692  6657    1  180.0000000000    15.1670000000      2
     6664  6691  6692  6693    1  180.0000000000    15.1670000000      2
     6672  6677  6678  6679    1  180.0000000000    15.1670000000      2
     6672  6677  6678  504     1  180.0000000000    15.1670000000      2
     6678  6677  506   504     1  180.0000000000    1.0041600000       2
     6672  6677  506   504     1  180.0000000000    1.0041600000       2
     6678  6677  506   507     1  0.0000000000      0.0000000000       1
     6672  6677  506   507     1  0.0000000000      0.0000000000       1
     6678  6677  506   508     1  180.0000000000    1.0041600000       2
     6672  6677  506   508     1  180.0000000000    1.0041600000       2
     428   429   431   432     1  0.0000000000      0.6508444444       3
     428   429   431   433     1  0.0000000000      0.6508444444       3
     428   429   431   444     1  0.0000000000      0.6508444444       3
     430   429   431   432     1  0.0000000000      0.6508444444       3
     430   429   431   433     1  0.0000000000      0.6508444444       3
     430   429   431   444     1  0.0000000000      0.6508444444       3
     439   429   431   432     1  0.0000000000      0.6508444444       3
     439   429   431   433     1  0.0000000000      0.6508444444       3
     439   429   431   444     1  0.0000000000      0.6508444444       3
     428   429   439   440     1  0.0000000000      0.6508444444       3
     428   429   439   441     1  0.0000000000      0.6508444444       3
     430   429   439   440     1  0.0000000000      0.5020800000       3
     430   429   439   441     1  0.0000000000      0.5439200000       3
     431   429   439   440     1  0.0000000000      0.5439200000       3
     431   429   439   441     1  0.0000000000      2.1756800000       3
     433   441   439   437     1  0.0000000000      0.6508444444       3
     439   441   433   435     1  0.0000000000      0.6508444444       3
     502   504   506   507     1  0.0000000000      0.6508444444       3
     502   504   506   508     1  0.0000000000      0.6508444444       3
     505   504   506   507     1  0.0000000000      0.6508444444       3
     6678  504   506   507     1  0.0000000000      0.6508444444       3
     6678  504   506   6677    1  0.0000000000      0.6508444444       3
     502   504   506   6677    1  0.0000000000      0.6508444444       3
     6674  6673  6672  6677    1  0.0000000000      0.0000000000       2
     6675  6673  6672  6677    1  0.0000000000      0.0000000000       2
     6676  6673  6672  6677    1  0.0000000000      0.0000000000       2
     6662  6686  6688  6666    1  0.0000000000      0.6508444444       3
     6662  6686  6688  6689    1  0.0000000000      0.6508444444       3
     6662  6686  6688  6690    1  0.0000000000      0.6508444444       3
     6684  6686  6688  6666    1  0.0000000000      0.6508444444       3
     6684  6686  6688  6689    1  0.0000000000      0.6508444444       3
     6684  6686  6688  6690    1  0.0000000000      0.6508444444       3
     6687  6686  6688  6666    1  0.0000000000      0.5439200000       3
     6687  6686  6688  6689    1  0.0000000000      0.5020800000       3
     6687  6686  6688  6690    1  0.0000000000      0.5020800000       3
     6533  6534  6535  6536    1  0.0000000000      0.0000000000       2
     6533  6534  6535  6537    1  0.0000000000      0.0000000000       2
     6533  6534  6535  6538    1  0.0000000000      0.0000000000       2
     6539  6534  6535  6536    1  0.0000000000      0.0000000000       2
     6539  6534  6535  6537    1  0.0000000000      0.0000000000       2
     6539  6534  6535  6538    1  0.0000000000      0.0000000000       2
     6533  6534  6539  6540    1  180.0000000000    15.1670000000      2
     6535  6534  6539  6540    1  180.0000000000    15.1670000000      2
     6659  6661  6662  6663    1  0.0000000000      0.0000000000       1
     6659  6661  6662  6664    1  180.0000000000    1.0041600000       2
     6659  6661  6662  6686    1  180.0000000000    1.0041600000       2
     6691  6661  6662  6663    1  0.0000000000      0.0000000000       1
     6691  6661  6662  6664    1  180.0000000000    1.0041600000       2
     6691  6661  6662  6686    1  180.0000000000    1.0041600000       2
     6659  6661  6691  6664    1  180.0000000000    15.1670000000      2
     6659  6661  6691  6692    1  180.0000000000    15.1670000000      2
     6662  6661  6691  6664    1  180.0000000000    15.1670000000      2
     6662  6661  6691  6692    1  180.0000000000    15.1670000000      2
     6658  6659  6661  6662    1  180.0000000000    15.1670000000      2
     6658  6659  6661  6691    1  180.0000000000    15.1670000000      2
     6660  6659  6661  6662    1  180.0000000000    15.1670000000      2
     6660  6659  6661  6691    1  180.0000000000    15.1670000000      2
     508   506   504   505     1  0.0000000000      0.6508444444       3
     508   506   504   6678    1  0.0000000000      0.6508444444       3
     6677  506   504   505     1  0.0000000000      0.6508444444       3
     6534  6539  6540  6541    1  180.0000000000    15.1670000000      2
     6539  6540  6541  6532    1  180.0000000000    15.1670000000      2
     6539  6540  6541  6542    1  180.0000000000    15.1670000000      2
     6670  6671  6672  6673    1  180.0000000000    15.1670000000      2
     6670  6671  6672  6677    1  180.0000000000    15.1670000000      2
     6684  6671  6672  6673    1  180.0000000000    15.1670000000      2
     6670  6671  6684  6668    1  180.0000000000    1.0041600000       2
     6670  6671  6684  6685    1  0.0000000000      0.0000000000       1
     6670  6671  6684  6686    1  180.0000000000    1.0041600000       2
     6672  6671  6684  6668    1  180.0000000000    1.0041600000       2
     6672  6671  6684  6685    1  0.0000000000      0.0000000000       1
     6672  6671  6684  6686    1  180.0000000000    1.0041600000       2
     6629  6658  6659  6660    1  180.0000000000    15.1670000000      2
     6629  6658  6659  6661    1  180.0000000000    15.1670000000      2
     6657  6658  6659  6660    1  180.0000000000    15.1670000000      2
     6657  6658  6659  6661    1  180.0000000000    15.1670000000      2
     429   439   441   433     1  0.0000000000      0.6508444444       3
     429   439   441   442     1  0.0000000000      0.6508444444       3
     429   439   441   443     1  0.0000000000      0.6508444444       3
     437   439   441   442     1  0.0000000000      0.6508444444       3
     437   439   441   443     1  0.0000000000      0.6508444444       3
     440   439   441   433     1  0.0000000000      0.5439200000       3
     440   439   441   442     1  0.0000000000      0.5020800000       3
     440   439   441   443     1  0.0000000000      0.5020800000       3
     437   439   429   428     1  0.0000000000      0.6508444444       3
     437   439   429   430     1  0.0000000000      0.5439200000       3
     437   439   429   431     1  0.0000000000      2.1756800000       3
     429   439   437   435     1  0.0000000000      2.1756800000       3
     440   439   437   435     1  0.0000000000      0.5439200000       3
     441   439   437   435     1  0.0000000000      2.1756800000       3
     429   439   437   438     1  0.0000000000      0.5439200000       3
     440   439   437   438     1  0.0000000000      0.5020800000       3
     441   439   437   438     1  0.0000000000      0.5439200000       3
     440   439   437   2745    1  0.0000000000      0.6508444444       3
     441   439   437   2745    1  0.0000000000      0.6508444444       3
     429   439   437   2745    1  0.0000000000      0.6508444444       3
     6677  6678  6679  6670    1  180.0000000000    15.1670000000      2
     504   6678  6677  506     1  180.0000000000    15.1670000000      2
     6679  6678  504   505     1  0.0000000000      0.0000000000       1
     6677  6678  504   505     1  0.0000000000      0.0000000000       1
     6679  6678  504   506     1  180.0000000000    1.0041600000       2
     6677  6678  504   506     1  180.0000000000    1.0041600000       2
     6679  6678  504   502     1  180.0000000000    1.0041600000       2
     6677  6678  504   502     1  180.0000000000    1.0041600000       2
     6679  6678  6677  506     1  180.0000000000    15.1670000000      2
     6661  6662  6664  6665    1  0.0000000000      0.6508444444       3
     6661  6662  6664  6666    1  0.0000000000      0.6508444444       3
     6661  6662  6664  6691    1  0.0000000000      0.6508444444       3
     6663  6662  6664  6665    1  0.0000000000      0.6508444444       3
     6663  6662  6664  6666    1  0.0000000000      0.6508444444       3
     6663  6662  6664  6691    1  0.0000000000      0.6508444444       3
     6686  6662  6664  6665    1  0.0000000000      0.6508444444       3
     6686  6662  6664  6666    1  0.0000000000      0.6508444444       3
     6686  6662  6664  6691    1  0.0000000000      0.6508444444       3
     6661  6662  6686  6684    1  0.0000000000      0.6508444444       3
     6661  6662  6686  6687    1  0.0000000000      0.6508444444       3
     6661  6662  6686  6688    1  0.0000000000      0.6508444444       3
     6663  6662  6686  6684    1  0.0000000000      0.5439200000       3
     6663  6662  6686  6687    1  0.0000000000      0.5020800000       3
     6663  6662  6686  6688    1  0.0000000000      0.5439200000       3
     6664  6662  6686  6684    1  0.0000000000      2.1756800000       3
     6664  6662  6686  6687    1  0.0000000000      0.5439200000       3
     6664  6662  6686  6688    1  0.0000000000      2.1756800000       3
     426   428   429   430     1  0.0000000000      0.0000000000       1
     426   428   429   431     1  180.0000000000    1.0041600000       2
     426   428   429   439     1  180.0000000000    1.0041600000       2
     444   428   429   430     1  0.0000000000      0.0000000000       1
     444   428   429   431     1  180.0000000000    1.0041600000       2
     444   428   429   439     1  180.0000000000    1.0041600000       2
     426   428   444   431     1  180.0000000000    15.1670000000      2
     426   428   444   445     1  180.0000000000    15.1670000000      2
     429   428   444   431     1  180.0000000000    15.1670000000      2
     429   428   444   445     1  180.0000000000    15.1670000000      2
     6530  6532  6533  6534    1  180.0000000000    15.1670000000      2
     6530  6532  6533  6546    1  180.0000000000    15.1670000000      2
     6541  6532  6533  6534    1  180.0000000000    15.1670000000      2
     6541  6532  6533  6546    1  180.0000000000    15.1670000000      2
     6530  6532  6541  6540    1  180.0000000000    15.1670000000      2
     6530  6532  6541  6542    1  180.0000000000    15.1670000000      2
     6533  6532  6541  6540    1  180.0000000000    15.1670000000      2
     6533  6532  6541  6542    1  180.0000000000    15.1670000000      2
     6664  6666  6668  6669    1  0.0000000000      0.5439200000       3
     6664  6666  6668  6670    1  0.0000000000      0.6508444444       3
     6664  6666  6668  6684    1  0.0000000000      2.1756800000       3
     6667  6666  6668  6669    1  0.0000000000      0.5020800000       3
     6667  6666  6668  6670    1  0.0000000000      0.6508444444       3
     6667  6666  6668  6684    1  0.0000000000      0.5439200000       3
     6688  6666  6668  6669    1  0.0000000000      0.5439200000       3
     6688  6666  6668  6670    1  0.0000000000      0.6508444444       3
     6688  6666  6668  6684    1  0.0000000000      2.1756800000       3
     6664  6666  6688  6686    1  0.0000000000      0.6508444444       3
     6664  6666  6688  6689    1  0.0000000000      0.6508444444       3
     6664  6666  6688  6690    1  0.0000000000      0.6508444444       3
     6667  6666  6688  6686    1  0.0000000000      0.5439200000       3
     6667  6666  6688  6689    1  0.0000000000      0.5020800000       3
     6667  6666  6688  6690    1  0.0000000000      0.5020800000       3
     6668  6666  6688  6686    1  0.0000000000      0.6508444444       3
     6668  6666  6688  6689    1  0.0000000000      0.6508444444       3
     6668  6666  6688  6690    1  0.0000000000      0.6508444444       3
     429   431   433   434     1  0.0000000000      0.5439200000       3
     429   431   433   441     1  0.0000000000      2.1756800000       3
     432   431   433   434     1  0.0000000000      0.5020800000       3
     432   431   433   441     1  0.0000000000      0.5439200000       3
     444   431   433   434     1  0.0000000000      0.6508444444       3
     444   431   433   441     1  0.0000000000      0.6508444444       3
     429   431   444   428     1  180.0000000000    1.0041600000       2
     429   431   444   445     1  180.0000000000    1.0041600000       2
     432   431   444   428     1  0.0000000000      0.0000000000       1
     432   431   444   445     1  0.0000000000      0.0000000000       1
     433   431   444   428     1  180.0000000000    1.0041600000       2
     433   431   444   445     1  180.0000000000    1.0041600000       2
     6666  6668  6670  6671    1  180.0000000000    1.0041600000       2
     6666  6668  6670  6679    1  180.0000000000    1.0041600000       2
     6669  6668  6670  6671    1  0.0000000000      0.0000000000       1
     6669  6668  6670  6679    1  0.0000000000      0.0000000000       1
     6684  6668  6670  6671    1  180.0000000000    1.0041600000       2
     6684  6668  6670  6679    1  180.0000000000    1.0041600000       2
     6666  6668  6684  6671    1  0.0000000000      0.6508444444       3
     6666  6668  6684  6685    1  0.0000000000      0.6508444444       3
     6666  6668  6684  6686    1  0.0000000000      0.6508444444       3
     6669  6668  6684  6671    1  0.0000000000      0.6508444444       3
     6669  6668  6684  6685    1  0.0000000000      0.6508444444       3
     6669  6668  6684  6686    1  0.0000000000      0.6508444444       3
     6670  6668  6684  6671    1  0.0000000000      0.6508444444       3
     6670  6668  6684  6685    1  0.0000000000      0.6508444444       3
     6670  6668  6684  6686    1  0.0000000000      0.6508444444       3
     2693  2692  2696  2697    1  0.0000000000      0.5439200000       3
     2693  2692  2696  2701    1  0.0000000000      0.6508444444       3
     2693  2692  2696  2725    1  0.0000000000      0.6508444444       3
     2694  2692  2696  2697    1  0.0000000000      0.5439200000       3
     2694  2692  2696  2701    1  0.0000000000      0.6508444444       3
     2694  2692  2696  2725    1  0.0000000000      0.6508444444       3
     2695  2692  2696  2697    1  0.0000000000      0.5439200000       3
     2695  2692  2696  2701    1  0.0000000000      0.6508444444       3
     2695  2692  2696  2725    1  0.0000000000      0.6508444444       3
     3800  3805  3806  3807    1  180.0000000000    15.1670000000      2
     3800  3805  3806  3828    1  180.0000000000    15.1670000000      2
     3826  3805  3806  3807    1  180.0000000000    15.1670000000      2
     3826  3805  3806  3828    1  180.0000000000    15.1670000000      2
     3800  3805  3826  3825    1  180.0000000000    15.1670000000      2
     3800  3805  3826  3827    1  180.0000000000    15.1670000000      2
     3806  3805  3826  3825    1  180.0000000000    15.1670000000      2
     3806  3805  3826  3827    1  180.0000000000    15.1670000000      2
     5815  5817  5819  5820    1  0.0000000000      0.6508444444       3
     5815  5817  5819  5821    1  0.0000000000      0.6508444444       3
     5818  5817  5819  5820    1  0.0000000000      0.6508444444       3
     1295  5817  5819  5820    1  0.0000000000      0.6508444444       3
     1295  5817  5819  1296    1  0.0000000000      0.6508444444       3
     5815  5817  5819  1296    1  0.0000000000      0.6508444444       3
     1276  1277  1279  1280    1  180.0000000000    15.1670000000      2
     1276  1277  1279  1309    1  180.0000000000    15.1670000000      2
     1278  1277  1279  1280    1  180.0000000000    15.1670000000      2
     1278  1277  1279  1309    1  180.0000000000    15.1670000000      2
     3797  3796  3800  3801    1  0.0000000000      0.5439200000       3
     3797  3796  3800  3805    1  0.0000000000      0.6508444444       3
     3797  3796  3800  3829    1  0.0000000000      0.6508444444       3
     3798  3796  3800  3801    1  0.0000000000      0.5439200000       3
     3798  3796  3800  3805    1  0.0000000000      0.6508444444       3
     3798  3796  3800  3829    1  0.0000000000      0.6508444444       3
     3799  3796  3800  3801    1  0.0000000000      0.5439200000       3
     3799  3796  3800  3805    1  0.0000000000      0.6508444444       3
     3799  3796  3800  3829    1  0.0000000000      0.6508444444       3
     4178  4202  4204  4182    1  0.0000000000      0.6508444444       3
     4178  4202  4204  4205    1  0.0000000000      0.6508444444       3
     4178  4202  4204  4206    1  0.0000000000      0.6508444444       3
     4200  4202  4204  4182    1  0.0000000000      0.6508444444       3
     4200  4202  4204  4205    1  0.0000000000      0.6508444444       3
     4200  4202  4204  4206    1  0.0000000000      0.6508444444       3
     4203  4202  4204  4182    1  0.0000000000      0.5439200000       3
     4203  4202  4204  4205    1  0.0000000000      0.5020800000       3
     4203  4202  4204  4206    1  0.0000000000      0.5020800000       3
     1247  1276  1277  1278    1  180.0000000000    15.1670000000      2
     1247  1276  1277  1279    1  180.0000000000    15.1670000000      2
     1275  1276  1277  1278    1  180.0000000000    15.1670000000      2
     1275  1276  1277  1279    1  180.0000000000    15.1670000000      2
     3809  3825  3826  3805    1  180.0000000000    15.1670000000      2
     3809  3825  3826  3827    1  180.0000000000    15.1670000000      2
     3812  3825  3826  3805    1  180.0000000000    15.1670000000      2
     3812  3825  3826  3827    1  180.0000000000    15.1670000000      2
     1290  1295  1296  1297    1  180.0000000000    15.1670000000      2
     5817  1295  1296  5819    1  180.0000000000    15.1670000000      2
     1290  1295  5817  5815    1  180.0000000000    1.0041600000       2
     1296  1295  5817  5815    1  180.0000000000    1.0041600000       2
     1290  1295  5817  5818    1  0.0000000000      0.0000000000       1
     1296  1295  5817  5818    1  0.0000000000      0.0000000000       1
     1290  1295  5817  5819    1  180.0000000000    1.0041600000       2
     1296  1295  5817  5819    1  180.0000000000    1.0041600000       2
     1290  1295  1296  5819    1  180.0000000000    15.1670000000      2
     1292  1291  1290  1295    1  0.0000000000      0.0000000000       2
     1293  1291  1290  1295    1  0.0000000000      0.0000000000       2
     1294  1291  1290  1295    1  0.0000000000      0.0000000000       2
     1295  1290  1289  1302    1  180.0000000000    15.1670000000      2
     1289  1290  1291  1292    1  0.0000000000      0.0000000000       2
     1289  1290  1291  1293    1  0.0000000000      0.0000000000       2
     1289  1290  1291  1294    1  0.0000000000      0.0000000000       2
     1289  1290  1295  1296    1  180.0000000000    15.1670000000      2
     1291  1290  1295  1296    1  180.0000000000    15.1670000000      2
     1289  1290  1295  5817    1  180.0000000000    15.1670000000      2
     1291  1290  1295  5817    1  180.0000000000    15.1670000000      2
     4190  4189  4188  4193    1  0.0000000000      0.0000000000       2
     4191  4189  4188  4193    1  0.0000000000      0.0000000000       2
     4192  4189  4188  4193    1  0.0000000000      0.0000000000       2
     4193  4188  4187  4200    1  180.0000000000    15.1670000000      2
     4187  4188  4189  4190    1  0.0000000000      0.0000000000       2
     4187  4188  4189  4191    1  0.0000000000      0.0000000000       2
     4187  4188  4189  4192    1  0.0000000000      0.0000000000       2
     4187  4188  4193  4194    1  180.0000000000    15.1670000000      2
     4189  4188  4193  4194    1  180.0000000000    15.1670000000      2
     4187  4188  4193  2781    1  180.0000000000    15.1670000000      2
     4189  4188  4193  2781    1  180.0000000000    15.1670000000      2
     4177  4178  4180  4181    1  0.0000000000      0.6508444444       3
     4177  4178  4180  4182    1  0.0000000000      0.6508444444       3
     4177  4178  4180  4207    1  0.0000000000      0.6508444444       3
     4179  4178  4180  4181    1  0.0000000000      0.6508444444       3
     4179  4178  4180  4182    1  0.0000000000      0.6508444444       3
     4179  4178  4180  4207    1  0.0000000000      0.6508444444       3
     4202  4178  4180  4181    1  0.0000000000      0.6508444444       3
     4202  4178  4180  4182    1  0.0000000000      0.6508444444       3
     4202  4178  4180  4207    1  0.0000000000      0.6508444444       3
     4177  4178  4202  4200    1  0.0000000000      0.6508444444       3
     4177  4178  4202  4203    1  0.0000000000      0.6508444444       3
     4177  4178  4202  4204    1  0.0000000000      0.6508444444       3
     4179  4178  4202  4200    1  0.0000000000      0.5439200000       3
     4179  4178  4202  4203    1  0.0000000000      0.5020800000       3
     4179  4178  4202  4204    1  0.0000000000      0.5439200000       3
     4180  4178  4202  4200    1  0.0000000000      2.1756800000       3
     4180  4178  4202  4203    1  0.0000000000      0.5439200000       3
     4180  4178  4202  4204    1  0.0000000000      2.1756800000       3
     3807  3809  3810  3811    1  0.0000000000      0.0000000000       1
     3807  3809  3810  3812    1  180.0000000000    1.0041600000       2
     3807  3809  3810  3820    1  180.0000000000    1.0041600000       2
     3825  3809  3810  3811    1  0.0000000000      0.0000000000       1
     3825  3809  3810  3812    1  180.0000000000    1.0041600000       2
     3825  3809  3810  3820    1  180.0000000000    1.0041600000       2
     3807  3809  3825  3812    1  180.0000000000    15.1670000000      2
     3807  3809  3825  3826    1  180.0000000000    15.1670000000      2
     3810  3809  3825  3812    1  180.0000000000    15.1670000000      2
     3810  3809  3825  3826    1  180.0000000000    15.1670000000      2
     1277  1279  1280  1281    1  0.0000000000      0.0000000000       1
     1277  1279  1280  1282    1  180.0000000000    1.0041600000       2
     1277  1279  1280  1304    1  180.0000000000    1.0041600000       2
     1309  1279  1280  1281    1  0.0000000000      0.0000000000       1
     1309  1279  1280  1282    1  180.0000000000    1.0041600000       2
     1309  1279  1280  1304    1  180.0000000000    1.0041600000       2
     1277  1279  1309  1282    1  180.0000000000    15.1670000000      2
     1277  1279  1309  1310    1  180.0000000000    15.1670000000      2
     1280  1279  1309  1282    1  180.0000000000    15.1670000000      2
     1280  1279  1309  1310    1  180.0000000000    15.1670000000      2
     4186  4187  4188  4189    1  180.0000000000    15.1670000000      2
     4186  4187  4188  4193    1  180.0000000000    15.1670000000      2
     4200  4187  4188  4189    1  180.0000000000    15.1670000000      2
     4186  4187  4200  4184    1  180.0000000000    1.0041600000       2
     4186  4187  4200  4201    1  0.0000000000      0.0000000000       1
     4186  4187  4200  4202    1  180.0000000000    1.0041600000       2
     4188  4187  4200  4184    1  180.0000000000    1.0041600000       2
     4188  4187  4200  4201    1  0.0000000000      0.0000000000       1
     4188  4187  4200  4202    1  180.0000000000    1.0041600000       2
     4184  4200  4202  4178    1  0.0000000000      2.1756800000       3
     4184  4200  4202  4203    1  0.0000000000      0.5439200000       3
     4184  4200  4202  4204    1  0.0000000000      2.1756800000       3
     4187  4200  4202  4178    1  0.0000000000      0.6508444444       3
     4187  4200  4202  4203    1  0.0000000000      0.6508444444       3
     4187  4200  4202  4204    1  0.0000000000      0.6508444444       3
     4201  4200  4202  4178    1  0.0000000000      0.5439200000       3
     4201  4200  4202  4203    1  0.0000000000      0.5020800000       3
     4201  4200  4202  4204    1  0.0000000000      0.5439200000       3
     1244  1243  1247  1248    1  0.0000000000      0.5439200000       3
     1244  1243  1247  1252    1  0.0000000000      0.6508444444       3
     1244  1243  1247  1276    1  0.0000000000      0.6508444444       3
     1245  1243  1247  1248    1  0.0000000000      0.5439200000       3
     1245  1243  1247  1252    1  0.0000000000      0.6508444444       3
     1245  1243  1247  1276    1  0.0000000000      0.6508444444       3
     1246  1243  1247  1248    1  0.0000000000      0.5439200000       3
     1246  1243  1247  1252    1  0.0000000000      0.6508444444       3
     1246  1243  1247  1276    1  0.0000000000      0.6508444444       3
     4178  4180  4182  4183    1  0.0000000000      0.5439200000       3
     4178  4180  4182  4184    1  0.0000000000      2.1756800000       3
     4178  4180  4182  4204    1  0.0000000000      2.1756800000       3
     4181  4180  4182  4183    1  0.0000000000      0.5020800000       3
     4181  4180  4182  4184    1  0.0000000000      0.5439200000       3
     4181  4180  4182  4204    1  0.0000000000      0.5439200000       3
     4207  4180  4182  4183    1  0.0000000000      0.6508444444       3
     4207  4180  4182  4184    1  0.0000000000      0.6508444444       3
     4207  4180  4182  4204    1  0.0000000000      0.6508444444       3
     4178  4180  4207  4177    1  180.0000000000    1.0041600000       2
     4178  4180  4207  4208    1  180.0000000000    1.0041600000       2
     4181  4180  4207  4177    1  0.0000000000      0.0000000000       1
     4181  4180  4207  4208    1  0.0000000000      0.0000000000       1
     4182  4180  4207  4177    1  180.0000000000    1.0041600000       2
     4182  4180  4207  4208    1  180.0000000000    1.0041600000       2
     4188  4193  4194  4195    1  180.0000000000    15.1670000000      2
     2781  4193  4194  2783    1  180.0000000000    15.1670000000      2
     4188  4193  2781  2782    1  0.0000000000      0.0000000000       1
     4194  4193  2781  2782    1  0.0000000000      0.0000000000       1
     4188  4193  2781  2783    1  180.0000000000    1.0041600000       2
     4194  4193  2781  2783    1  180.0000000000    1.0041600000       2
     4188  4193  2781  2779    1  180.0000000000    1.0041600000       2
     4194  4193  2781  2779    1  180.0000000000    1.0041600000       2
     4188  4193  4194  2783    1  180.0000000000    15.1670000000      2
     1288  1289  1290  1291    1  180.0000000000    15.1670000000      2
     1288  1289  1290  1295    1  180.0000000000    15.1670000000      2
     1302  1289  1290  1291    1  180.0000000000    15.1670000000      2
     1288  1289  1302  1286    1  180.0000000000    1.0041600000       2
     1288  1289  1302  1303    1  0.0000000000      0.0000000000       1
     1288  1289  1302  1304    1  180.0000000000    1.0041600000       2
     1290  1289  1302  1286    1  180.0000000000    1.0041600000       2
     1290  1289  1302  1303    1  0.0000000000      0.0000000000       1
     1290  1289  1302  1304    1  180.0000000000    1.0041600000       2
     4180  4182  4184  4185    1  0.0000000000      0.5439200000       3
     4180  4182  4184  4186    1  0.0000000000      0.6508444444       3
     4180  4182  4184  4200    1  0.0000000000      2.1756800000       3
     4183  4182  4184  4185    1  0.0000000000      0.5020800000       3
     4183  4182  4184  4186    1  0.0000000000      0.6508444444       3
     4183  4182  4184  4200    1  0.0000000000      0.5439200000       3
     4204  4182  4184  4185    1  0.0000000000      0.5439200000       3
     4204  4182  4184  4186    1  0.0000000000      0.6508444444       3
     4204  4182  4184  4200    1  0.0000000000      2.1756800000       3
     4180  4182  4204  4202    1  0.0000000000      0.6508444444       3
     4180  4182  4204  4205    1  0.0000000000      0.6508444444       3
     4180  4182  4204  4206    1  0.0000000000      0.6508444444       3
     4183  4182  4204  4202    1  0.0000000000      0.5439200000       3
     4183  4182  4204  4205    1  0.0000000000      0.5020800000       3
     4183  4182  4204  4206    1  0.0000000000      0.5020800000       3
     4184  4182  4204  4202    1  0.0000000000      0.6508444444       3
     4184  4182  4204  4205    1  0.0000000000      0.6508444444       3
     4184  4182  4204  4206    1  0.0000000000      0.6508444444       3
     1243  1247  1248  1249    1  0.0000000000      0.5439200000       3
     1243  1247  1248  1250    1  0.0000000000      0.5439200000       3
     1243  1247  1248  1251    1  0.0000000000      0.5439200000       3
     1252  1247  1248  1249    1  0.0000000000      0.6508444444       3
     1252  1247  1248  1250    1  0.0000000000      0.6508444444       3
     1252  1247  1248  1251    1  0.0000000000      0.6508444444       3
     1276  1247  1248  1249    1  0.0000000000      0.6508444444       3
     1276  1247  1248  1250    1  0.0000000000      0.6508444444       3
     1276  1247  1248  1251    1  0.0000000000      0.6508444444       3
     1243  1247  1252  1253    1  0.0000000000      0.0000000000       2
     1243  1247  1252  1273    1  180.0000000000    1.0041600000       2
     1248  1247  1252  1253    1  0.0000000000      0.0000000000       2
     1248  1247  1252  1273    1  180.0000000000    1.0041600000       2
     1276  1247  1252  1253    1  0.0000000000      0.0000000000       2
     1276  1247  1252  1273    1  180.0000000000    0.0000000000       2
     1243  1247  1276  1275    1  0.0000000000      0.0000000000       2
     1243  1247  1276  1277    1  180.0000000000    1.0041600000       2
     1248  1247  1276  1275    1  0.0000000000      0.0000000000       2
     1248  1247  1276  1277    1  180.0000000000    1.0041600000       2
     1252  1247  1276  1275    1  0.0000000000      0.0000000000       2
     1252  1247  1276  1277    1  180.0000000000    0.0000000000       2
     1279  1280  1282  1283    1  0.0000000000      0.6508444444       3
     1279  1280  1282  1284    1  0.0000000000      0.6508444444       3
     1279  1280  1282  1309    1  0.0000000000      0.6508444444       3
     1281  1280  1282  1283    1  0.0000000000      0.6508444444       3
     1281  1280  1282  1284    1  0.0000000000      0.6508444444       3
     1281  1280  1282  1309    1  0.0000000000      0.6508444444       3
     1304  1280  1282  1283    1  0.0000000000      0.6508444444       3
     1304  1280  1282  1284    1  0.0000000000      0.6508444444       3
     1304  1280  1282  1309    1  0.0000000000      0.6508444444       3
     1279  1280  1304  1302    1  0.0000000000      0.6508444444       3
     1279  1280  1304  1305    1  0.0000000000      0.6508444444       3
     1279  1280  1304  1306    1  0.0000000000      0.6508444444       3
     1281  1280  1304  1302    1  0.0000000000      0.5439200000       3
     1281  1280  1304  1305    1  0.0000000000      0.5020800000       3
     1281  1280  1304  1306    1  0.0000000000      0.5439200000       3
     1282  1280  1304  1302    1  0.0000000000      2.1756800000       3
     1282  1280  1304  1305    1  0.0000000000      0.5439200000       3
     1282  1280  1304  1306    1  0.0000000000      2.1756800000       3
     4175  4177  4178  4179    1  0.0000000000      0.0000000000       1
     4175  4177  4178  4180    1  180.0000000000    1.0041600000       2
     4175  4177  4178  4202    1  180.0000000000    1.0041600000       2
     4207  4177  4178  4179    1  0.0000000000      0.0000000000       1
     4207  4177  4178  4180    1  180.0000000000    1.0041600000       2
     4207  4177  4178  4202    1  180.0000000000    1.0041600000       2
     4175  4177  4207  4180    1  180.0000000000    15.1670000000      2
     4175  4177  4207  4208    1  180.0000000000    15.1670000000      2
     4178  4177  4207  4180    1  180.0000000000    15.1670000000      2
     4178  4177  4207  4208    1  180.0000000000    15.1670000000      2
     3806  3807  3809  3810    1  180.0000000000    15.1670000000      2
     3806  3807  3809  3825    1  180.0000000000    15.1670000000      2
     3808  3807  3809  3810    1  180.0000000000    15.1670000000      2
     3808  3807  3809  3825    1  180.0000000000    15.1670000000      2
     5810  5811  5813  5814    1  0.0000000000      0.6508444444       3
     5810  5811  5813  5815    1  0.0000000000      0.6508444444       3
     5810  5811  5813  5826    1  0.0000000000      0.6508444444       3
     5812  5811  5813  5814    1  0.0000000000      0.6508444444       3
     5812  5811  5813  5815    1  0.0000000000      0.6508444444       3
     5812  5811  5813  5826    1  0.0000000000      0.6508444444       3
     5821  5811  5813  5814    1  0.0000000000      0.6508444444       3
     5821  5811  5813  5815    1  0.0000000000      0.6508444444       3
     5821  5811  5813  5826    1  0.0000000000      0.6508444444       3
     5810  5811  5821  5822    1  0.0000000000      0.6508444444       3
     5810  5811  5821  5823    1  0.0000000000      0.6508444444       3
     5812  5811  5821  5822    1  0.0000000000      0.5020800000       3
     5812  5811  5821  5823    1  0.0000000000      0.5439200000       3
     5813  5811  5821  5822    1  0.0000000000      0.5439200000       3
     5813  5811  5821  5823    1  0.0000000000      2.1756800000       3
     1280  1304  1306  1284    1  0.0000000000      0.6508444444       3
     1280  1304  1306  1307    1  0.0000000000      0.6508444444       3
     1280  1304  1306  1308    1  0.0000000000      0.6508444444       3
     1302  1304  1306  1284    1  0.0000000000      0.6508444444       3
     1302  1304  1306  1307    1  0.0000000000      0.6508444444       3
     1302  1304  1306  1308    1  0.0000000000      0.6508444444       3
     1305  1304  1306  1284    1  0.0000000000      0.5439200000       3
     1305  1304  1306  1307    1  0.0000000000      0.5020800000       3
     1305  1304  1306  1308    1  0.0000000000      0.5020800000       3
     4182  4184  4186  4187    1  180.0000000000    1.0041600000       2
     4182  4184  4186  4195    1  180.0000000000    1.0041600000       2
     4185  4184  4186  4187    1  0.0000000000      0.0000000000       1
     4185  4184  4186  4195    1  0.0000000000      0.0000000000       1
     4200  4184  4186  4187    1  180.0000000000    1.0041600000       2
     4200  4184  4186  4195    1  180.0000000000    1.0041600000       2
     4182  4184  4200  4187    1  0.0000000000      0.6508444444       3
     4182  4184  4200  4201    1  0.0000000000      0.6508444444       3
     4182  4184  4200  4202    1  0.0000000000      0.6508444444       3
     4185  4184  4200  4187    1  0.0000000000      0.6508444444       3
     4185  4184  4200  4201    1  0.0000000000      0.6508444444       3
     4185  4184  4200  4202    1  0.0000000000      0.6508444444       3
     4186  4184  4200  4187    1  0.0000000000      0.6508444444       3
     4186  4184  4200  4201    1  0.0000000000      0.6508444444       3
     4186  4184  4200  4202    1  0.0000000000      0.6508444444       3
     1253  1275  1276  1247    1  180.0000000000    15.1670000000      2
     1253  1275  1276  1277    1  180.0000000000    15.1670000000      2
     1310  1275  1276  1247    1  180.0000000000    15.1670000000      2
     1310  1275  1276  1277    1  180.0000000000    15.1670000000      2
     1253  1275  1310  1309    1  180.0000000000    15.1670000000      2
     1253  1275  1310  1311    1  180.0000000000    15.1670000000      2
     1276  1275  1310  1309    1  180.0000000000    15.1670000000      2
     1276  1275  1310  1311    1  180.0000000000    15.1670000000      2
     2468  2463  2462  2475    1  180.0000000000    15.1670000000      2
     2462  2463  2464  2465    1  0.0000000000      0.0000000000       2
     2462  2463  2464  2466    1  0.0000000000      0.0000000000       2
     2462  2463  2464  2467    1  0.0000000000      0.0000000000       2
     2462  2463  2468  2469    1  180.0000000000    15.1670000000      2
     2464  2463  2468  2469    1  180.0000000000    15.1670000000      2
     2462  2463  2468  1196    1  180.0000000000    15.1670000000      2
     2464  2463  2468  1196    1  180.0000000000    15.1670000000      2
     671   670   669   674     1  0.0000000000      0.0000000000       2
     672   670   669   674     1  0.0000000000      0.0000000000       2
     673   670   669   674     1  0.0000000000      0.0000000000       2
     6298  6306  6304  6302    1  0.0000000000      0.6508444444       3
     6304  6306  6298  6300    1  0.0000000000      0.6508444444       3
     4395  4400  4401  4402    1  180.0000000000    15.1670000000      2
     6093  4400  4401  6095    1  180.0000000000    15.1670000000      2
     4395  4400  6093  6091    1  180.0000000000    1.0041600000       2
     4401  4400  6093  6091    1  180.0000000000    1.0041600000       2
     4395  4400  6093  6094    1  0.0000000000      0.0000000000       1
     4401  4400  6093  6094    1  0.0000000000      0.0000000000       1
     4395  4400  6093  6095    1  180.0000000000    1.0041600000       2
     4401  4400  6093  6095    1  180.0000000000    1.0041600000       2
     4395  4400  4401  6095    1  180.0000000000    15.1670000000      2
     6097  6095  6093  6094    1  0.0000000000      0.6508444444       3
     6097  6095  6093  4400    1  0.0000000000      0.6508444444       3
     4401  6095  6093  6094    1  0.0000000000      0.6508444444       3
     4184  4186  4187  4188    1  180.0000000000    15.1670000000      2
     4184  4186  4187  4200    1  180.0000000000    15.1670000000      2
     4195  4186  4187  4188    1  180.0000000000    15.1670000000      2
     4195  4186  4187  4200    1  180.0000000000    15.1670000000      2
     4184  4186  4195  4196    1  180.0000000000    15.1670000000      2
     4187  4186  4195  4194    1  180.0000000000    15.1670000000      2
     4187  4186  4195  4196    1  180.0000000000    15.1670000000      2
     6293  6294  6296  6297    1  0.0000000000      0.6508444444       3
     6293  6294  6296  6298    1  0.0000000000      0.6508444444       3
     6293  6294  6296  6309    1  0.0000000000      0.6508444444       3
     6295  6294  6296  6297    1  0.0000000000      0.6508444444       3
     6295  6294  6296  6298    1  0.0000000000      0.6508444444       3
     6295  6294  6296  6309    1  0.0000000000      0.6508444444       3
     6304  6294  6296  6297    1  0.0000000000      0.6508444444       3
     6304  6294  6296  6298    1  0.0000000000      0.6508444444       3
     6304  6294  6296  6309    1  0.0000000000      0.6508444444       3
     6293  6294  6304  6305    1  0.0000000000      0.6508444444       3
     6293  6294  6304  6306    1  0.0000000000      0.6508444444       3
     6295  6294  6304  6305    1  0.0000000000      0.5020800000       3
     6295  6294  6304  6306    1  0.0000000000      0.5439200000       3
     6296  6294  6304  6305    1  0.0000000000      0.5439200000       3
     6296  6294  6304  6306    1  0.0000000000      2.1756800000       3
     6304  6302  6300  6301    1  0.0000000000      0.6508444444       3
     6304  6302  6300  3849    1  0.0000000000      0.6508444444       3
     3848  6302  6300  6301    1  0.0000000000      0.6508444444       3
     4385  4387  4389  4390    1  0.0000000000      0.5439200000       3
     4385  4387  4389  4391    1  0.0000000000      2.1756800000       3
     4385  4387  4389  4411    1  0.0000000000      2.1756800000       3
     4388  4387  4389  4390    1  0.0000000000      0.5020800000       3
     4388  4387  4389  4391    1  0.0000000000      0.5439200000       3
     4388  4387  4389  4411    1  0.0000000000      0.5439200000       3
     4414  4387  4389  4390    1  0.0000000000      0.6508444444       3
     4414  4387  4389  4391    1  0.0000000000      0.6508444444       3
     4414  4387  4389  4411    1  0.0000000000      0.6508444444       3
     4385  4387  4414  4384    1  180.0000000000    1.0041600000       2
     4385  4387  4414  4415    1  180.0000000000    1.0041600000       2
     4388  4387  4414  4384    1  0.0000000000      0.0000000000       1
     4388  4387  4414  4415    1  0.0000000000      0.0000000000       1
     4389  4387  4414  4384    1  180.0000000000    1.0041600000       2
     4389  4387  4414  4415    1  180.0000000000    1.0041600000       2
     4397  4396  4395  4400    1  0.0000000000      0.0000000000       2
     4398  4396  4395  4400    1  0.0000000000      0.0000000000       2
     4399  4396  4395  4400    1  0.0000000000      0.0000000000       2
     4384  4414  4415  4380    1  180.0000000000    15.1670000000      2
     4384  4414  4415  4416    1  180.0000000000    15.1670000000      2
     4387  4414  4415  4380    1  180.0000000000    15.1670000000      2
     4387  4414  4415  4416    1  180.0000000000    15.1670000000      2
     6317  6319  6321  6322    1  0.0000000000      0.5439200000       3
     6317  6319  6321  6323    1  0.0000000000      2.1756800000       3
     6317  6319  6321  6343    1  0.0000000000      2.1756800000       3
     6320  6319  6321  6322    1  0.0000000000      0.5020800000       3
     6320  6319  6321  6323    1  0.0000000000      0.5439200000       3
     6320  6319  6321  6343    1  0.0000000000      0.5439200000       3
     6346  6319  6321  6322    1  0.0000000000      0.6508444444       3
     6346  6319  6321  6323    1  0.0000000000      0.6508444444       3
     6346  6319  6321  6343    1  0.0000000000      0.6508444444       3
     6317  6319  6346  6316    1  180.0000000000    1.0041600000       2
     6317  6319  6346  6347    1  180.0000000000    1.0041600000       2
     6320  6319  6346  6316    1  0.0000000000      0.0000000000       1
     6320  6319  6346  6347    1  0.0000000000      0.0000000000       1
     6321  6319  6346  6316    1  180.0000000000    1.0041600000       2
     6321  6319  6346  6347    1  180.0000000000    1.0041600000       2
     1187  1188  1190  1191    1  0.0000000000      0.6508444444       3
     1187  1188  1190  1192    1  0.0000000000      0.6508444444       3
     1187  1188  1190  1203    1  0.0000000000      0.6508444444       3
     1189  1188  1190  1191    1  0.0000000000      0.6508444444       3
     1189  1188  1190  1192    1  0.0000000000      0.6508444444       3
     1189  1188  1190  1203    1  0.0000000000      0.6508444444       3
     1198  1188  1190  1191    1  0.0000000000      0.6508444444       3
     1198  1188  1190  1192    1  0.0000000000      0.6508444444       3
     1198  1188  1190  1203    1  0.0000000000      0.6508444444       3
     1187  1188  1198  1199    1  0.0000000000      0.6508444444       3
     1187  1188  1198  1200    1  0.0000000000      0.6508444444       3
     1189  1188  1198  1199    1  0.0000000000      0.5020800000       3
     1189  1188  1198  1200    1  0.0000000000      0.5439200000       3
     1190  1188  1198  1199    1  0.0000000000      0.5439200000       3
     1190  1188  1198  1200    1  0.0000000000      2.1756800000       3
     4404  4403  4402  4401    1  0.0000000000      0.0000000000       2
     4405  4403  4402  4401    1  0.0000000000      0.0000000000       2
     4406  4403  4402  4401    1  0.0000000000      0.0000000000       2
     1198  1196  1194  1195    1  0.0000000000      0.6508444444       3
     1198  1196  1194  2469    1  0.0000000000      0.6508444444       3
     2468  1196  1194  1195    1  0.0000000000      0.6508444444       3
     6302  6304  6294  6293    1  0.0000000000      0.6508444444       3
     6302  6304  6294  6295    1  0.0000000000      0.5439200000       3
     6302  6304  6294  6296    1  0.0000000000      2.1756800000       3
     6294  6304  6302  6300    1  0.0000000000      2.1756800000       3
     6305  6304  6302  6300    1  0.0000000000      0.5439200000       3
     6306  6304  6302  6300    1  0.0000000000      2.1756800000       3
     6294  6304  6302  6303    1  0.0000000000      0.5439200000       3
     6305  6304  6302  6303    1  0.0000000000      0.5020800000       3
     6306  6304  6302  6303    1  0.0000000000      0.5439200000       3
     6294  6304  6306  6298    1  0.0000000000      0.6508444444       3
     6294  6304  6306  6307    1  0.0000000000      0.6508444444       3
     6294  6304  6306  6308    1  0.0000000000      0.6508444444       3
     6302  6304  6306  6307    1  0.0000000000      0.6508444444       3
     6302  6304  6306  6308    1  0.0000000000      0.6508444444       3
     6305  6304  6306  6298    1  0.0000000000      0.5439200000       3
     6305  6304  6306  6307    1  0.0000000000      0.5020800000       3
     6305  6304  6306  6308    1  0.0000000000      0.5020800000       3
     6294  6304  6302  3848    1  0.0000000000      0.6508444444       3
     6305  6304  6302  3848    1  0.0000000000      0.6508444444       3
     6306  6304  6302  3848    1  0.0000000000      0.6508444444       3
     4391  4407  4409  4385    1  0.0000000000      2.1756800000       3
     4391  4407  4409  4410    1  0.0000000000      0.5439200000       3
     4391  4407  4409  4411    1  0.0000000000      2.1756800000       3
     4394  4407  4409  4385    1  0.0000000000      0.6508444444       3
     4394  4407  4409  4410    1  0.0000000000      0.6508444444       3
     4394  4407  4409  4411    1  0.0000000000      0.6508444444       3
     4408  4407  4409  4385    1  0.0000000000      0.5439200000       3
     4408  4407  4409  4410    1  0.0000000000      0.5020800000       3
     4408  4407  4409  4411    1  0.0000000000      0.5439200000       3
     4391  4393  4394  4395    1  180.0000000000    15.1670000000      2
     4391  4393  4394  4407    1  180.0000000000    15.1670000000      2
     4402  4393  4394  4395    1  180.0000000000    15.1670000000      2
     4402  4393  4394  4407    1  180.0000000000    15.1670000000      2
     4391  4393  4402  4403    1  180.0000000000    15.1670000000      2
     4394  4393  4402  4401    1  180.0000000000    15.1670000000      2
     4394  4393  4402  4403    1  180.0000000000    15.1670000000      2
     4348  4352  4353  4354    1  0.0000000000      0.5439200000       3
     4348  4352  4353  4355    1  0.0000000000      0.5439200000       3
     4348  4352  4353  4356    1  0.0000000000      0.5439200000       3
     4357  4352  4353  4354    1  0.0000000000      0.6508444444       3
     4357  4352  4353  4355    1  0.0000000000      0.6508444444       3
     4357  4352  4353  4356    1  0.0000000000      0.6508444444       3
     4381  4352  4353  4354    1  0.0000000000      0.6508444444       3
     4381  4352  4353  4355    1  0.0000000000      0.6508444444       3
     4381  4352  4353  4356    1  0.0000000000      0.6508444444       3
     4348  4352  4357  4358    1  0.0000000000      0.0000000000       2
     4348  4352  4357  4378    1  180.0000000000    1.0041600000       2
     4353  4352  4357  4358    1  0.0000000000      0.0000000000       2
     4353  4352  4357  4378    1  180.0000000000    1.0041600000       2
     4381  4352  4357  4358    1  0.0000000000      0.0000000000       2
     4381  4352  4357  4378    1  180.0000000000    0.0000000000       2
     4348  4352  4381  4380    1  0.0000000000      0.0000000000       2
     4348  4352  4381  4382    1  180.0000000000    1.0041600000       2
     4353  4352  4381  4380    1  0.0000000000      0.0000000000       2
     4353  4352  4381  4382    1  180.0000000000    1.0041600000       2
     4357  4352  4381  4380    1  0.0000000000      0.0000000000       2
     4357  4352  4381  4382    1  180.0000000000    0.0000000000       2
     4403  4402  4401  4400    1  180.0000000000    15.1670000000      2
     4393  4402  4403  4404    1  0.0000000000      0.0000000000       2
     4393  4402  4403  4405    1  0.0000000000      0.0000000000       2
     4393  4402  4403  4406    1  0.0000000000      0.0000000000       2
     4401  4402  4393  4391    1  180.0000000000    15.1670000000      2
     4403  4402  4401  6095    1  180.0000000000    15.1670000000      2
     4393  4402  4401  6095    1  180.0000000000    15.1670000000      2
     4384  4385  4387  4388    1  0.0000000000      0.6508444444       3
     4384  4385  4387  4389    1  0.0000000000      0.6508444444       3
     4384  4385  4387  4414    1  0.0000000000      0.6508444444       3
     4386  4385  4387  4388    1  0.0000000000      0.6508444444       3
     4386  4385  4387  4389    1  0.0000000000      0.6508444444       3
     4386  4385  4387  4414    1  0.0000000000      0.6508444444       3
     4409  4385  4387  4388    1  0.0000000000      0.6508444444       3
     4409  4385  4387  4389    1  0.0000000000      0.6508444444       3
     4409  4385  4387  4414    1  0.0000000000      0.6508444444       3
     4384  4385  4409  4407    1  0.0000000000      0.6508444444       3
     4384  4385  4409  4410    1  0.0000000000      0.6508444444       3
     4384  4385  4409  4411    1  0.0000000000      0.6508444444       3
     4386  4385  4409  4407    1  0.0000000000      0.5439200000       3
     4386  4385  4409  4410    1  0.0000000000      0.5020800000       3
     4386  4385  4409  4411    1  0.0000000000      0.5439200000       3
     4387  4385  4409  4407    1  0.0000000000      2.1756800000       3
     4387  4385  4409  4410    1  0.0000000000      0.5439200000       3
     4387  4385  4409  4411    1  0.0000000000      2.1756800000       3
     4393  4394  4395  4396    1  180.0000000000    15.1670000000      2
     4393  4394  4395  4400    1  180.0000000000    15.1670000000      2
     4407  4394  4395  4396    1  180.0000000000    15.1670000000      2
     4393  4394  4407  4391    1  180.0000000000    1.0041600000       2
     4393  4394  4407  4408    1  0.0000000000      0.0000000000       1
     4393  4394  4407  4409    1  180.0000000000    1.0041600000       2
     4395  4394  4407  4391    1  180.0000000000    1.0041600000       2
     4395  4394  4407  4408    1  0.0000000000      0.0000000000       1
     4395  4394  4407  4409    1  180.0000000000    1.0041600000       2
     4389  4391  4393  4394    1  180.0000000000    1.0041600000       2
     4389  4391  4393  4402    1  180.0000000000    1.0041600000       2
     4392  4391  4393  4394    1  0.0000000000      0.0000000000       1
     4392  4391  4393  4402    1  0.0000000000      0.0000000000       1
     4407  4391  4393  4394    1  180.0000000000    1.0041600000       2
     4407  4391  4393  4402    1  180.0000000000    1.0041600000       2
     4389  4391  4407  4394    1  0.0000000000      0.6508444444       3
     4389  4391  4407  4408    1  0.0000000000      0.6508444444       3
     4389  4391  4407  4409    1  0.0000000000      0.6508444444       3
     4392  4391  4407  4394    1  0.0000000000      0.6508444444       3
     4392  4391  4407  4408    1  0.0000000000      0.6508444444       3
     4392  4391  4407  4409    1  0.0000000000      0.6508444444       3
     4393  4391  4407  4394    1  0.0000000000      0.6508444444       3
     4393  4391  4407  4408    1  0.0000000000      0.6508444444       3
     4393  4391  4407  4409    1  0.0000000000      0.6508444444       3
     2465  2464  2463  2468    1  0.0000000000      0.0000000000       2
     2466  2464  2463  2468    1  0.0000000000      0.0000000000       2
     2467  2464  2463  2468    1  0.0000000000      0.0000000000       2
     4352  4381  4382  4383    1  180.0000000000    15.1670000000      2
     4352  4381  4382  4384    1  180.0000000000    15.1670000000      2
     4380  4381  4382  4383    1  180.0000000000    15.1670000000      2
     4380  4381  4382  4384    1  180.0000000000    15.1670000000      2
     4381  4382  4384  4385    1  180.0000000000    15.1670000000      2
     4381  4382  4384  4414    1  180.0000000000    15.1670000000      2
     4383  4382  4384  4385    1  180.0000000000    15.1670000000      2
     4383  4382  4384  4414    1  180.0000000000    15.1670000000      2
     4394  4395  4396  4397    1  0.0000000000      0.0000000000       2
     4394  4395  4396  4398    1  0.0000000000      0.0000000000       2
     4394  4395  4396  4399    1  0.0000000000      0.0000000000       2
     4394  4395  4400  4401    1  180.0000000000    15.1670000000      2
     4396  4395  4400  4401    1  180.0000000000    15.1670000000      2
     4400  4395  4394  4407    1  180.0000000000    15.1670000000      2
     4396  4395  4400  6093    1  180.0000000000    15.1670000000      2
     4394  4395  4400  6093    1  180.0000000000    15.1670000000      2
     4385  4409  4411  4389    1  0.0000000000      0.6508444444       3
     4385  4409  4411  4412    1  0.0000000000      0.6508444444       3
     4385  4409  4411  4413    1  0.0000000000      0.6508444444       3
     4407  4409  4411  4389    1  0.0000000000      0.6508444444       3
     4407  4409  4411  4412    1  0.0000000000      0.6508444444       3
     4407  4409  4411  4413    1  0.0000000000      0.6508444444       3
     4410  4409  4411  4389    1  0.0000000000      0.5439200000       3
     4410  4409  4411  4412    1  0.0000000000      0.5020800000       3
     4410  4409  4411  4413    1  0.0000000000      0.5020800000       3
     1196  1198  1188  1187    1  0.0000000000      0.6508444444       3
     1196  1198  1188  1189    1  0.0000000000      0.5439200000       3
     1196  1198  1188  1190    1  0.0000000000      2.1756800000       3
     1188  1198  1196  1194    1  0.0000000000      2.1756800000       3
     1199  1198  1196  1194    1  0.0000000000      0.5439200000       3
     1200  1198  1196  1194    1  0.0000000000      2.1756800000       3
     1188  1198  1196  1197    1  0.0000000000      0.5439200000       3
     1199  1198  1196  1197    1  0.0000000000      0.5020800000       3
     1200  1198  1196  1197    1  0.0000000000      0.5439200000       3
     1188  1198  1200  1192    1  0.0000000000      0.6508444444       3
     1188  1198  1200  1201    1  0.0000000000      0.6508444444       3
     1188  1198  1200  1202    1  0.0000000000      0.6508444444       3
     1196  1198  1200  1201    1  0.0000000000      0.6508444444       3
     1196  1198  1200  1202    1  0.0000000000      0.6508444444       3
     1199  1198  1200  1192    1  0.0000000000      0.5439200000       3
     1199  1198  1200  1201    1  0.0000000000      0.5020800000       3
     1199  1198  1200  1202    1  0.0000000000      0.5020800000       3
     1188  1198  1196  2468    1  0.0000000000      0.6508444444       3
     1199  1198  1196  2468    1  0.0000000000      0.6508444444       3
     1200  1198  1196  2468    1  0.0000000000      0.6508444444       3
     4382  4384  4385  4386    1  0.0000000000      0.0000000000       1
     4382  4384  4385  4387    1  180.0000000000    1.0041600000       2
     4382  4384  4385  4409    1  180.0000000000    1.0041600000       2
     4414  4384  4385  4386    1  0.0000000000      0.0000000000       1
     4414  4384  4385  4387    1  180.0000000000    1.0041600000       2
     4414  4384  4385  4409    1  180.0000000000    1.0041600000       2
     4382  4384  4414  4387    1  180.0000000000    15.1670000000      2
     4382  4384  4414  4415    1  180.0000000000    15.1670000000      2
     4385  4384  4414  4387    1  180.0000000000    15.1670000000      2
     4385  4384  4414  4415    1  180.0000000000    15.1670000000      2
     6290  6291  6293  6294    1  180.0000000000    15.1670000000      2
     6290  6291  6293  6309    1  180.0000000000    15.1670000000      2
     6292  6291  6293  6294    1  180.0000000000    15.1670000000      2
     6292  6291  6293  6309    1  180.0000000000    15.1670000000      2
     4387  4389  4391  4392    1  0.0000000000      0.5439200000       3
     4387  4389  4391  4393    1  0.0000000000      0.6508444444       3
     4387  4389  4391  4407    1  0.0000000000      2.1756800000       3
     4390  4389  4391  4392    1  0.0000000000      0.5020800000       3
     4390  4389  4391  4393    1  0.0000000000      0.6508444444       3
     4390  4389  4391  4407    1  0.0000000000      0.5439200000       3
     4411  4389  4391  4392    1  0.0000000000      0.5439200000       3
     4411  4389  4391  4393    1  0.0000000000      0.6508444444       3
     4411  4389  4391  4407    1  0.0000000000      2.1756800000       3
     4387  4389  4411  4409    1  0.0000000000      0.6508444444       3
     4387  4389  4411  4412    1  0.0000000000      0.6508444444       3
     4387  4389  4411  4413    1  0.0000000000      0.6508444444       3
     4390  4389  4411  4409    1  0.0000000000      0.5439200000       3
     4390  4389  4411  4412    1  0.0000000000      0.5020800000       3
     4390  4389  4411  4413    1  0.0000000000      0.5020800000       3
     4391  4389  4411  4409    1  0.0000000000      0.6508444444       3
     4391  4389  4411  4412    1  0.0000000000      0.6508444444       3
     4391  4389  4411  4413    1  0.0000000000      0.6508444444       3
     4400  4401  4402  4393    1  180.0000000000    15.1670000000      2
     4402  4401  4400  6093    1  180.0000000000    15.1670000000      2
     4400  4401  6095  6096    1  0.0000000000      0.0000000000       1
     4402  4401  6095  6096    1  0.0000000000      0.0000000000       1
     4400  4401  6095  6097    1  180.0000000000    1.0041600000       2
     4402  4401  6095  6097    1  180.0000000000    1.0041600000       2
     4400  4401  6095  6093    1  180.0000000000    1.0041600000       2
     4402  4401  6095  6093    1  180.0000000000    1.0041600000       2
     6316  6346  6347  6312    1  180.0000000000    15.1670000000      2
     6316  6346  6347  6348    1  180.0000000000    15.1670000000      2
     6319  6346  6347  6312    1  180.0000000000    15.1670000000      2
     6319  6346  6347  6348    1  180.0000000000    15.1670000000      2
     6291  6293  6294  6295    1  0.0000000000      0.0000000000       1
     6291  6293  6294  6296    1  180.0000000000    1.0041600000       2
     6291  6293  6294  6304    1  180.0000000000    1.0041600000       2
     6309  6293  6294  6295    1  0.0000000000      0.0000000000       1
     6309  6293  6294  6296    1  180.0000000000    1.0041600000       2
     6309  6293  6294  6304    1  180.0000000000    1.0041600000       2
     6291  6293  6309  6296    1  180.0000000000    15.1670000000      2
     6291  6293  6309  6310    1  180.0000000000    15.1670000000      2
     6294  6293  6309  6296    1  180.0000000000    15.1670000000      2
     6294  6293  6309  6310    1  180.0000000000    15.1670000000      2
     4358  4380  4381  4352    1  180.0000000000    15.1670000000      2
     4358  4380  4381  4382    1  180.0000000000    15.1670000000      2
     4415  4380  4381  4352    1  180.0000000000    15.1670000000      2
     4415  4380  4381  4382    1  180.0000000000    15.1670000000      2
     4358  4380  4415  4414    1  180.0000000000    15.1670000000      2
     4358  4380  4415  4416    1  180.0000000000    15.1670000000      2
     4381  4380  4415  4414    1  180.0000000000    15.1670000000      2
     4381  4380  4415  4416    1  180.0000000000    15.1670000000      2
     6091  6093  6095  6096    1  0.0000000000      0.6508444444       3
     6091  6093  6095  6097    1  0.0000000000      0.6508444444       3
     6094  6093  6095  6096    1  0.0000000000      0.6508444444       3
     4400  6093  6095  6096    1  0.0000000000      0.6508444444       3
     4400  6093  6095  4401    1  0.0000000000      0.6508444444       3
     6091  6093  6095  4401    1  0.0000000000      0.6508444444       3
     1286  1302  1304  1280    1  0.0000000000      2.1756800000       3
     1286  1302  1304  1305    1  0.0000000000      0.5439200000       3
     1286  1302  1304  1306    1  0.0000000000      2.1756800000       3
     1289  1302  1304  1280    1  0.0000000000      0.6508444444       3
     1289  1302  1304  1305    1  0.0000000000      0.6508444444       3
     1289  1302  1304  1306    1  0.0000000000      0.6508444444       3
     1303  1302  1304  1280    1  0.0000000000      0.5439200000       3
     1303  1302  1304  1305    1  0.0000000000      0.5020800000       3
     1303  1302  1304  1306    1  0.0000000000      0.5439200000       3
     1280  1282  1284  1285    1  0.0000000000      0.5439200000       3
     1280  1282  1284  1286    1  0.0000000000      2.1756800000       3
     1280  1282  1284  1306    1  0.0000000000      2.1756800000       3
     1283  1282  1284  1285    1  0.0000000000      0.5020800000       3
     1283  1282  1284  1286    1  0.0000000000      0.5439200000       3
     1283  1282  1284  1306    1  0.0000000000      0.5439200000       3
     1309  1282  1284  1285    1  0.0000000000      0.6508444444       3
     1309  1282  1284  1286    1  0.0000000000      0.6508444444       3
     1309  1282  1284  1306    1  0.0000000000      0.6508444444       3
     1280  1282  1309  1279    1  180.0000000000    1.0041600000       2
     1280  1282  1309  1310    1  180.0000000000    1.0041600000       2
     1283  1282  1309  1279    1  0.0000000000      0.0000000000       1
     1283  1282  1309  1310    1  0.0000000000      0.0000000000       1
     1284  1282  1309  1279    1  180.0000000000    1.0041600000       2
     1284  1282  1309  1310    1  180.0000000000    1.0041600000       2
     1284  1286  1288  1289    1  180.0000000000    1.0041600000       2
     1284  1286  1288  1297    1  180.0000000000    1.0041600000       2
     1287  1286  1288  1289    1  0.0000000000      0.0000000000       1
     1287  1286  1288  1297    1  0.0000000000      0.0000000000       1
     1302  1286  1288  1289    1  180.0000000000    1.0041600000       2
     1302  1286  1288  1297    1  180.0000000000    1.0041600000       2
     1284  1286  1302  1289    1  0.0000000000      0.6508444444       3
     1284  1286  1302  1303    1  0.0000000000      0.6508444444       3
     1284  1286  1302  1304    1  0.0000000000      0.6508444444       3
     1287  1286  1302  1289    1  0.0000000000      0.6508444444       3
     1287  1286  1302  1303    1  0.0000000000      0.6508444444       3
     1287  1286  1302  1304    1  0.0000000000      0.6508444444       3
     1288  1286  1302  1289    1  0.0000000000      0.6508444444       3
     1288  1286  1302  1303    1  0.0000000000      0.6508444444       3
     1288  1286  1302  1304    1  0.0000000000      0.6508444444       3
     1286  1288  1289  1290    1  180.0000000000    15.1670000000      2
     1286  1288  1289  1302    1  180.0000000000    15.1670000000      2
     1297  1288  1289  1290    1  180.0000000000    15.1670000000      2
     1297  1288  1289  1302    1  180.0000000000    15.1670000000      2
     1286  1288  1297  1298    1  180.0000000000    15.1670000000      2
     1289  1288  1297  1296    1  180.0000000000    15.1670000000      2
     1289  1288  1297  1298    1  180.0000000000    15.1670000000      2
     1296  1297  1288  1286    1  180.0000000000    15.1670000000      2
     1298  1297  1296  1295    1  180.0000000000    15.1670000000      2
     1288  1297  1298  1299    1  0.0000000000      0.0000000000       2
     1288  1297  1298  1300    1  0.0000000000      0.0000000000       2
     1288  1297  1298  1301    1  0.0000000000      0.0000000000       2
     1288  1297  1296  5819    1  180.0000000000    15.1670000000      2
     1298  1297  1296  5819    1  180.0000000000    15.1670000000      2
     1299  1298  1297  1296    1  0.0000000000      0.0000000000       2
     1300  1298  1297  1296    1  0.0000000000      0.0000000000       2
     1301  1298  1297  1296    1  0.0000000000      0.0000000000       2
     2015  2016  2018  2019    1  0.0000000000      0.6508444444       3
     2015  2016  2018  2020    1  0.0000000000      0.6508444444       3
     2015  2016  2018  2031    1  0.0000000000      0.6508444444       3
     2017  2016  2018  2019    1  0.0000000000      0.6508444444       3
     2017  2016  2018  2020    1  0.0000000000      0.6508444444       3
     2017  2016  2018  2031    1  0.0000000000      0.6508444444       3
     2026  2016  2018  2019    1  0.0000000000      0.6508444444       3
     2026  2016  2018  2020    1  0.0000000000      0.6508444444       3
     2026  2016  2018  2031    1  0.0000000000      0.6508444444       3
     2015  2016  2026  2027    1  0.0000000000      0.6508444444       3
     2015  2016  2026  2028    1  0.0000000000      0.6508444444       3
     2017  2016  2026  2027    1  0.0000000000      0.5020800000       3
     2017  2016  2026  2028    1  0.0000000000      0.5439200000       3
     2018  2016  2026  2027    1  0.0000000000      0.5439200000       3
     2018  2016  2026  2028    1  0.0000000000      2.1756800000       3
     2022  2020  2018  2016    1  0.0000000000      2.1756800000       3
     2022  2020  2018  2019    1  0.0000000000      0.5439200000       3
     2022  2020  2018  2031    1  0.0000000000      0.6508444444       3
     2018  2020  2022  2023    1  0.0000000000      0.5439200000       3
     2018  2020  2022  2024    1  0.0000000000      2.1756800000       3
     2021  2020  2022  2023    1  0.0000000000      0.5020800000       3
     2021  2020  2022  2024    1  0.0000000000      0.5439200000       3
     2028  2020  2022  2023    1  0.0000000000      0.5439200000       3
     2028  2020  2022  2024    1  0.0000000000      2.1756800000       3
     2018  2020  2028  2026    1  0.0000000000      0.6508444444       3
     2018  2020  2028  2029    1  0.0000000000      0.6508444444       3
     2018  2020  2028  2030    1  0.0000000000      0.6508444444       3
     2021  2020  2028  2026    1  0.0000000000      0.5439200000       3
     2021  2020  2028  2029    1  0.0000000000      0.5020800000       3
     2021  2020  2028  2030    1  0.0000000000      0.5020800000       3
     2022  2020  2028  2029    1  0.0000000000      0.6508444444       3
     2022  2020  2028  2030    1  0.0000000000      0.6508444444       3
     2018  2020  2022  1571    1  0.0000000000      0.6508444444       3
     2021  2020  2022  1571    1  0.0000000000      0.6508444444       3
     2028  2020  2022  1571    1  0.0000000000      0.6508444444       3
     2020  2022  2024  2025    1  0.0000000000      0.6508444444       3
     2020  2022  2024  2026    1  0.0000000000      0.6508444444       3
     2023  2022  2024  2025    1  0.0000000000      0.6508444444       3
     1571  2022  2024  2025    1  0.0000000000      0.6508444444       3
     1571  2022  2024  1572    1  0.0000000000      0.6508444444       3
     2020  2022  2024  1572    1  0.0000000000      0.6508444444       3
     2026  2024  2022  2023    1  0.0000000000      0.6508444444       3
     2026  2024  2022  1571    1  0.0000000000      0.6508444444       3
     1572  2024  2022  2023    1  0.0000000000      0.6508444444       3
     2024  2026  2016  2015    1  0.0000000000      0.6508444444       3
     2024  2026  2016  2017    1  0.0000000000      0.5439200000       3
     2024  2026  2016  2018    1  0.0000000000      2.1756800000       3
     2016  2026  2024  2022    1  0.0000000000      2.1756800000       3
     2027  2026  2024  2022    1  0.0000000000      0.5439200000       3
     2028  2026  2024  2022    1  0.0000000000      2.1756800000       3
     2016  2026  2024  2025    1  0.0000000000      0.5439200000       3
     2027  2026  2024  2025    1  0.0000000000      0.5020800000       3
     2028  2026  2024  2025    1  0.0000000000      0.5439200000       3
     2016  2026  2028  2020    1  0.0000000000      0.6508444444       3
     2016  2026  2028  2029    1  0.0000000000      0.6508444444       3
     2016  2026  2028  2030    1  0.0000000000      0.6508444444       3
     2024  2026  2028  2029    1  0.0000000000      0.6508444444       3
     2024  2026  2028  2030    1  0.0000000000      0.6508444444       3
     2027  2026  2028  2020    1  0.0000000000      0.5439200000       3
     2027  2026  2028  2029    1  0.0000000000      0.5020800000       3
     2027  2026  2028  2030    1  0.0000000000      0.5020800000       3
     2016  2026  2024  1572    1  0.0000000000      0.6508444444       3
     2027  2026  2024  1572    1  0.0000000000      0.6508444444       3
     2028  2026  2024  1572    1  0.0000000000      0.6508444444       3
     2026  2028  2020  2022    1  0.0000000000      0.6508444444       3
     2020  2028  2026  2024    1  0.0000000000      0.6508444444       3
     3017  3016  3015  3020    1  0.0000000000      0.0000000000       2
     3018  3016  3015  3020    1  0.0000000000      0.0000000000       2
     3019  3016  3015  3020    1  0.0000000000      0.0000000000       2
     2016  2018  2020  2021    1  0.0000000000      0.5439200000       3
     2016  2018  2020  2028    1  0.0000000000      2.1756800000       3
     2019  2018  2020  2021    1  0.0000000000      0.5020800000       3
     2019  2018  2020  2028    1  0.0000000000      0.5439200000       3
     2031  2018  2020  2021    1  0.0000000000      0.6508444444       3
     2031  2018  2020  2028    1  0.0000000000      0.6508444444       3
     2016  2018  2031  2015    1  180.0000000000    1.0041600000       2
     2016  2018  2031  2032    1  180.0000000000    1.0041600000       2
     2019  2018  2031  2015    1  0.0000000000      0.0000000000       1
     2019  2018  2031  2032    1  0.0000000000      0.0000000000       1
     2020  2018  2031  2015    1  180.0000000000    1.0041600000       2
     2020  2018  2031  2032    1  180.0000000000    1.0041600000       2
     2013  2015  2016  2017    1  0.0000000000      0.0000000000       1
     2013  2015  2016  2018    1  180.0000000000    1.0041600000       2
     2013  2015  2016  2026    1  180.0000000000    1.0041600000       2
     2031  2015  2016  2017    1  0.0000000000      0.0000000000       1
     2031  2015  2016  2018    1  180.0000000000    1.0041600000       2
     2031  2015  2016  2026    1  180.0000000000    1.0041600000       2
     2013  2015  2031  2018    1  180.0000000000    15.1670000000      2
     2013  2015  2031  2032    1  180.0000000000    15.1670000000      2
     2016  2015  2031  2018    1  180.0000000000    15.1670000000      2
     2016  2015  2031  2032    1  180.0000000000    15.1670000000      2
     1282  1284  1286  1287    1  0.0000000000      0.5439200000       3
     1282  1284  1286  1288    1  0.0000000000      0.6508444444       3
     1282  1284  1286  1302    1  0.0000000000      2.1756800000       3
     1285  1284  1286  1287    1  0.0000000000      0.5020800000       3
     1285  1284  1286  1288    1  0.0000000000      0.6508444444       3
     1285  1284  1286  1302    1  0.0000000000      0.5439200000       3
     1306  1284  1286  1287    1  0.0000000000      0.5439200000       3
     1306  1284  1286  1288    1  0.0000000000      0.6508444444       3
     1306  1284  1286  1302    1  0.0000000000      2.1756800000       3
     1282  1284  1306  1304    1  0.0000000000      0.6508444444       3
     1282  1284  1306  1307    1  0.0000000000      0.6508444444       3
     1282  1284  1306  1308    1  0.0000000000      0.6508444444       3
     1285  1284  1306  1304    1  0.0000000000      0.5439200000       3
     1285  1284  1306  1307    1  0.0000000000      0.5020800000       3
     1285  1284  1306  1308    1  0.0000000000      0.5020800000       3
     1286  1284  1306  1304    1  0.0000000000      0.6508444444       3
     1286  1284  1306  1307    1  0.0000000000      0.6508444444       3
     1286  1284  1306  1308    1  0.0000000000      0.6508444444       3
     1566  1571  1572  1573    1  180.0000000000    15.1670000000      2
     2022  1571  1572  2024    1  180.0000000000    15.1670000000      2
     1566  1571  2022  2020    1  180.0000000000    1.0041600000       2
     1572  1571  2022  2020    1  180.0000000000    1.0041600000       2
     1566  1571  2022  2023    1  0.0000000000      0.0000000000       1
     1572  1571  2022  2023    1  0.0000000000      0.0000000000       1
     1566  1571  2022  2024    1  180.0000000000    1.0041600000       2
     1572  1571  2022  2024    1  180.0000000000    1.0041600000       2
     1566  1571  1572  2024    1  180.0000000000    15.1670000000      2
     1568  1567  1566  1571    1  0.0000000000      0.0000000000       2
     1569  1567  1566  1571    1  0.0000000000      0.0000000000       2
     1570  1567  1566  1571    1  0.0000000000      0.0000000000       2
     2012  2013  2015  2016    1  180.0000000000    15.1670000000      2
     2012  2013  2015  2031    1  180.0000000000    15.1670000000      2
     2014  2013  2015  2016    1  180.0000000000    15.1670000000      2
     2014  2013  2015  2031    1  180.0000000000    15.1670000000      2
     2015  2031  2032  2011    1  180.0000000000    15.1670000000      2
     2015  2031  2032  2033    1  180.0000000000    15.1670000000      2
     2018  2031  2032  2011    1  180.0000000000    15.1670000000      2
     2018  2031  2032  2033    1  180.0000000000    15.1670000000      2
     1571  1572  1573  1564    1  180.0000000000    15.1670000000      2
     1573  1572  1571  2022    1  180.0000000000    15.1670000000      2
     1571  1572  2024  2022    1  180.0000000000    1.0041600000       2
     1573  1572  2024  2022    1  180.0000000000    1.0041600000       2
     1571  1572  2024  2025    1  0.0000000000      0.0000000000       1
     1573  1572  2024  2025    1  0.0000000000      0.0000000000       1
     1571  1572  2024  2026    1  180.0000000000    1.0041600000       2
     1573  1572  2024  2026    1  180.0000000000    1.0041600000       2
     1279  1309  1310  1275    1  180.0000000000    15.1670000000      2
     1279  1309  1310  1311    1  180.0000000000    15.1670000000      2
     1282  1309  1310  1275    1  180.0000000000    15.1670000000      2
     1282  1309  1310  1311    1  180.0000000000    15.1670000000      2
     2011  2012  2013  2014    1  180.0000000000    15.1670000000      2
     2011  2012  2013  2015    1  180.0000000000    15.1670000000      2
     2034  2012  2013  2014    1  180.0000000000    15.1670000000      2
     2034  2012  2013  2015    1  180.0000000000    15.1670000000      2
     2011  2012  2034  2035    1  180.0000000000    4.1840000000       2
     2011  2012  2034  2069    1  180.0000000000    4.1840000000       2
     2013  2012  2034  2035    1  180.0000000000    4.1840000000       2
     2013  2012  2034  2069    1  180.0000000000    4.1840000000       2
     2597  2599  2600  2601    1  180.0000000000    15.1670000000      2
     2597  2599  2600  2613    1  180.0000000000    15.1670000000      2
     2608  2599  2600  2601    1  180.0000000000    15.1670000000      2
     2608  2599  2600  2613    1  180.0000000000    15.1670000000      2
     2597  2599  2608  2609    1  180.0000000000    15.1670000000      2
     2600  2599  2608  2607    1  180.0000000000    15.1670000000      2
     2600  2599  2608  2609    1  180.0000000000    15.1670000000      2
     2597  2613  2615  2591    1  0.0000000000      2.1756800000       3
     2597  2613  2615  2616    1  0.0000000000      0.5439200000       3
     2597  2613  2615  2617    1  0.0000000000      2.1756800000       3
     2600  2613  2615  2591    1  0.0000000000      0.6508444444       3
     2600  2613  2615  2616    1  0.0000000000      0.6508444444       3
     2600  2613  2615  2617    1  0.0000000000      0.6508444444       3
     2614  2613  2615  2591    1  0.0000000000      0.5439200000       3
     2614  2613  2615  2616    1  0.0000000000      0.5020800000       3
     2614  2613  2615  2617    1  0.0000000000      0.5439200000       3
     3005  3029  3031  3009    1  0.0000000000      0.6508444444       3
     3005  3029  3031  3032    1  0.0000000000      0.6508444444       3
     3005  3029  3031  3033    1  0.0000000000      0.6508444444       3
     3027  3029  3031  3009    1  0.0000000000      0.6508444444       3
     3027  3029  3031  3032    1  0.0000000000      0.6508444444       3
     3027  3029  3031  3033    1  0.0000000000      0.6508444444       3
     3030  3029  3031  3009    1  0.0000000000      0.5439200000       3
     3030  3029  3031  3032    1  0.0000000000      0.5020800000       3
     3030  3029  3031  3033    1  0.0000000000      0.5020800000       3
     1252  1253  1254  1255    1  180.0000000000    15.1670000000      2
     1252  1253  1254  1256    1  180.0000000000    15.1670000000      2
     1275  1253  1254  1255    1  180.0000000000    15.1670000000      2
     1275  1253  1254  1256    1  180.0000000000    15.1670000000      2
     1252  1253  1275  1276    1  180.0000000000    4.1840000000       2
     1252  1253  1275  1310    1  180.0000000000    4.1840000000       2
     1254  1253  1275  1276    1  180.0000000000    4.1840000000       2
     1254  1253  1275  1310    1  180.0000000000    4.1840000000       2
     3011  3027  3029  3005    1  0.0000000000      2.1756800000       3
     3011  3027  3029  3030    1  0.0000000000      0.5439200000       3
     3011  3027  3029  3031    1  0.0000000000      2.1756800000       3
     3014  3027  3029  3005    1  0.0000000000      0.6508444444       3
     3014  3027  3029  3030    1  0.0000000000      0.6508444444       3
     3014  3027  3029  3031    1  0.0000000000      0.6508444444       3
     3028  3027  3029  3005    1  0.0000000000      0.5439200000       3
     3028  3027  3029  3030    1  0.0000000000      0.5020800000       3
     3028  3027  3029  3031    1  0.0000000000      0.5439200000       3
     2595  2597  2599  2600    1  180.0000000000    1.0041600000       2
     2595  2597  2599  2608    1  180.0000000000    1.0041600000       2
     2598  2597  2599  2600    1  0.0000000000      0.0000000000       1
     2598  2597  2599  2608    1  0.0000000000      0.0000000000       1
     2613  2597  2599  2600    1  180.0000000000    1.0041600000       2
     2613  2597  2599  2608    1  180.0000000000    1.0041600000       2
     2595  2597  2613  2600    1  0.0000000000      0.6508444444       3
     2595  2597  2613  2614    1  0.0000000000      0.6508444444       3
     2595  2597  2613  2615    1  0.0000000000      0.6508444444       3
     2598  2597  2613  2600    1  0.0000000000      0.6508444444       3
     2598  2597  2613  2614    1  0.0000000000      0.6508444444       3
     2598  2597  2613  2615    1  0.0000000000      0.6508444444       3
     2599  2597  2613  2600    1  0.0000000000      0.6508444444       3
     2599  2597  2613  2614    1  0.0000000000      0.6508444444       3
     2599  2597  2613  2615    1  0.0000000000      0.6508444444       3
     5819  5821  5811  5810    1  0.0000000000      0.6508444444       3
     5819  5821  5811  5812    1  0.0000000000      0.5439200000       3
     5819  5821  5811  5813    1  0.0000000000      2.1756800000       3
     5811  5821  5819  5817    1  0.0000000000      2.1756800000       3
     5822  5821  5819  5817    1  0.0000000000      0.5439200000       3
     5823  5821  5819  5817    1  0.0000000000      2.1756800000       3
     5811  5821  5819  5820    1  0.0000000000      0.5439200000       3
     5822  5821  5819  5820    1  0.0000000000      0.5020800000       3
     5823  5821  5819  5820    1  0.0000000000      0.5439200000       3
     5811  5821  5823  5815    1  0.0000000000      0.6508444444       3
     5811  5821  5823  5824    1  0.0000000000      0.6508444444       3
     5811  5821  5823  5825    1  0.0000000000      0.6508444444       3
     5819  5821  5823  5824    1  0.0000000000      0.6508444444       3
     5819  5821  5823  5825    1  0.0000000000      0.6508444444       3
     5822  5821  5823  5815    1  0.0000000000      0.5439200000       3
     5822  5821  5823  5824    1  0.0000000000      0.5020800000       3
     5822  5821  5823  5825    1  0.0000000000      0.5020800000       3
     5811  5821  5819  1296    1  0.0000000000      0.6508444444       3
     5822  5821  5819  1296    1  0.0000000000      0.6508444444       3
     5823  5821  5819  1296    1  0.0000000000      0.6508444444       3
     1295  1296  1297  1288    1  180.0000000000    15.1670000000      2
     1297  1296  1295  5817    1  180.0000000000    15.1670000000      2
     1295  1296  5819  5817    1  180.0000000000    1.0041600000       2
     1297  1296  5819  5817    1  180.0000000000    1.0041600000       2
     1295  1296  5819  5820    1  0.0000000000      0.0000000000       1
     1297  1296  5819  5820    1  0.0000000000      0.0000000000       1
     1295  1296  5819  5821    1  180.0000000000    1.0041600000       2
     1297  1296  5819  5821    1  180.0000000000    1.0041600000       2
     2463  2468  2469  2470    1  180.0000000000    15.1670000000      2
     2463  2468  2469  1194    1  180.0000000000    15.1670000000      2
     2469  2468  1196  1194    1  180.0000000000    1.0041600000       2
     2463  2468  1196  1194    1  180.0000000000    1.0041600000       2
     2469  2468  1196  1197    1  0.0000000000      0.0000000000       1
     2463  2468  1196  1197    1  0.0000000000      0.0000000000       1
     2469  2468  1196  1198    1  180.0000000000    1.0041600000       2
     2463  2468  1196  1198    1  180.0000000000    1.0041600000       2
     4487  4486  4490  4491    1  0.0000000000      0.5439200000       3
     4487  4486  4490  4495    1  0.0000000000      0.6508444444       3
     4487  4486  4490  4519    1  0.0000000000      0.6508444444       3
     4488  4486  4490  4491    1  0.0000000000      0.5439200000       3
     4488  4486  4490  4495    1  0.0000000000      0.6508444444       3
     4488  4486  4490  4519    1  0.0000000000      0.6508444444       3
     4489  4486  4490  4491    1  0.0000000000      0.5439200000       3
     4489  4486  4490  4495    1  0.0000000000      0.6508444444       3
     4489  4486  4490  4519    1  0.0000000000      0.6508444444       3
     3014  3015  3016  3017    1  0.0000000000      0.0000000000       2
     3014  3015  3016  3018    1  0.0000000000      0.0000000000       2
     3014  3015  3016  3019    1  0.0000000000      0.0000000000       2
     3014  3015  3020  3021    1  180.0000000000    15.1670000000      2
     3016  3015  3020  3021    1  180.0000000000    15.1670000000      2
     3020  3015  3014  3027    1  180.0000000000    15.1670000000      2
     3016  3015  3020  3954    1  180.0000000000    15.1670000000      2
     3014  3015  3020  3954    1  180.0000000000    15.1670000000      2
     5821  5819  5817  5818    1  0.0000000000      0.6508444444       3
     5821  5819  5817  1295    1  0.0000000000      0.6508444444       3
     1296  5819  5817  5818    1  0.0000000000      0.6508444444       3
     2599  2600  2601  2602    1  180.0000000000    15.1670000000      2
     2599  2600  2601  2606    1  180.0000000000    15.1670000000      2
     2613  2600  2601  2602    1  180.0000000000    15.1670000000      2
     2599  2600  2613  2597    1  180.0000000000    1.0041600000       2
     2599  2600  2613  2614    1  0.0000000000      0.0000000000       1
     2599  2600  2613  2615    1  180.0000000000    1.0041600000       2
     2601  2600  2613  2597    1  180.0000000000    1.0041600000       2
     2601  2600  2613  2614    1  0.0000000000      0.0000000000       1
     2601  2600  2613  2615    1  180.0000000000    1.0041600000       2
     2461  2462  2463  2464    1  180.0000000000    15.1670000000      2
     2461  2462  2463  2468    1  180.0000000000    15.1670000000      2
     2475  2462  2463  2464    1  180.0000000000    15.1670000000      2
     2461  2462  2475  2459    1  180.0000000000    1.0041600000       2
     2461  2462  2475  2476    1  0.0000000000      0.0000000000       1
     2461  2462  2475  2477    1  180.0000000000    1.0041600000       2
     2463  2462  2475  2459    1  180.0000000000    1.0041600000       2
     2463  2462  2475  2476    1  0.0000000000      0.0000000000       1
     2463  2462  2475  2477    1  180.0000000000    1.0041600000       2
     1571  1566  1565  1578    1  180.0000000000    15.1670000000      2
     1565  1566  1567  1568    1  0.0000000000      0.0000000000       2
     1565  1566  1567  1569    1  0.0000000000      0.0000000000       2
     1565  1566  1567  1570    1  0.0000000000      0.0000000000       2
     1565  1566  1571  1572    1  180.0000000000    15.1670000000      2
     1567  1566  1571  1572    1  180.0000000000    15.1670000000      2
     1565  1566  1571  2022    1  180.0000000000    15.1670000000      2
     1567  1566  1571  2022    1  180.0000000000    15.1670000000      2
     1572  1573  1564  1562    1  180.0000000000    15.1670000000      2
     1574  1573  1572  1571    1  180.0000000000    15.1670000000      2
     1564  1573  1574  1575    1  0.0000000000      0.0000000000       2
     1564  1573  1574  1576    1  0.0000000000      0.0000000000       2
     1564  1573  1574  1577    1  0.0000000000      0.0000000000       2
     1564  1573  1572  2024    1  180.0000000000    15.1670000000      2
     1574  1573  1572  2024    1  180.0000000000    15.1670000000      2
     6392  6394  6395  6396    1  180.0000000000    15.1670000000      2
     6392  6394  6395  6408    1  180.0000000000    15.1670000000      2
     6403  6394  6395  6396    1  180.0000000000    15.1670000000      2
     6403  6394  6395  6408    1  180.0000000000    15.1670000000      2
     6392  6394  6403  6404    1  180.0000000000    15.1670000000      2
     6395  6394  6403  6402    1  180.0000000000    15.1670000000      2
     6395  6394  6403  6404    1  180.0000000000    15.1670000000      2
     4500  4502  4504  4505    1  0.0000000000      0.5439200000       3
     4500  4502  4504  4512    1  0.0000000000      2.1756800000       3
     4503  4502  4504  4505    1  0.0000000000      0.5020800000       3
     4503  4502  4504  4512    1  0.0000000000      0.5439200000       3
     4515  4502  4504  4505    1  0.0000000000      0.6508444444       3
     4515  4502  4504  4512    1  0.0000000000      0.6508444444       3
     4500  4502  4515  4499    1  180.0000000000    1.0041600000       2
     4500  4502  4515  4516    1  180.0000000000    1.0041600000       2
     4503  4502  4515  4499    1  0.0000000000      0.0000000000       1
     4503  4502  4515  4516    1  0.0000000000      0.0000000000       1
     4504  4502  4515  4499    1  180.0000000000    1.0041600000       2
     4504  4502  4515  4516    1  180.0000000000    1.0041600000       2
     2469  2470  2461  2459    1  180.0000000000    15.1670000000      2
     2471  2470  2469  2468    1  180.0000000000    15.1670000000      2
     2461  2470  2471  2472    1  0.0000000000      0.0000000000       2
     2461  2470  2471  2473    1  0.0000000000      0.0000000000       2
     2461  2470  2471  2474    1  0.0000000000      0.0000000000       2
     2461  2470  2469  1194    1  180.0000000000    15.1670000000      2
     2471  2470  2469  1194    1  180.0000000000    15.1670000000      2
     2472  2471  2470  2469    1  0.0000000000      0.0000000000       2
     2473  2471  2470  2469    1  0.0000000000      0.0000000000       2
     2474  2471  2470  2469    1  0.0000000000      0.0000000000       2
     2610  2609  2608  2607    1  0.0000000000      0.0000000000       2
     2611  2609  2608  2607    1  0.0000000000      0.0000000000       2
     2612  2609  2608  2607    1  0.0000000000      0.0000000000       2
     2609  2608  2607  2606    1  180.0000000000    15.1670000000      2
     2607  2608  2599  2597    1  180.0000000000    15.1670000000      2
     2599  2608  2609  2610    1  0.0000000000      0.0000000000       2
     2599  2608  2609  2611    1  0.0000000000      0.0000000000       2
     2599  2608  2609  2612    1  0.0000000000      0.0000000000       2
     2599  2608  2607  1748    1  180.0000000000    15.1670000000      2
     2609  2608  2607  1748    1  180.0000000000    15.1670000000      2
     6401  6402  6403  6394    1  180.0000000000    15.1670000000      2
     6403  6402  6401  4506    1  180.0000000000    15.1670000000      2
     6403  6402  4508  4506    1  180.0000000000    1.0041600000       2
     6401  6402  4508  4506    1  180.0000000000    1.0041600000       2
     6403  6402  4508  4509    1  0.0000000000      0.0000000000       1
     6401  6402  4508  4509    1  0.0000000000      0.0000000000       1
     6403  6402  4508  4510    1  180.0000000000    1.0041600000       2
     6401  6402  4508  4510    1  180.0000000000    1.0041600000       2
     6402  6403  6394  6392    1  180.0000000000    15.1670000000      2
     6404  6403  6402  6401    1  180.0000000000    15.1670000000      2
     6394  6403  6404  6405    1  0.0000000000      0.0000000000       2
     6394  6403  6404  6406    1  0.0000000000      0.0000000000       2
     6394  6403  6404  6407    1  0.0000000000      0.0000000000       2
     6394  6403  6402  4508    1  180.0000000000    15.1670000000      2
     6404  6403  6402  4508    1  180.0000000000    15.1670000000      2
     1523  1552  1553  1554    1  180.0000000000    15.1670000000      2
     1523  1552  1553  1555    1  180.0000000000    15.1670000000      2
     1551  1552  1553  1554    1  180.0000000000    15.1670000000      2
     1551  1552  1553  1555    1  180.0000000000    15.1670000000      2
     1556  1580  1582  1560    1  0.0000000000      0.6508444444       3
     1556  1580  1582  1583    1  0.0000000000      0.6508444444       3
     1556  1580  1582  1584    1  0.0000000000      0.6508444444       3
     1578  1580  1582  1560    1  0.0000000000      0.6508444444       3
     1578  1580  1582  1583    1  0.0000000000      0.6508444444       3
     1578  1580  1582  1584    1  0.0000000000      0.6508444444       3
     1581  1580  1582  1560    1  0.0000000000      0.5439200000       3
     1581  1580  1582  1583    1  0.0000000000      0.5020800000       3
     1581  1580  1582  1584    1  0.0000000000      0.5020800000       3
     1556  1558  1560  1561    1  0.0000000000      0.5439200000       3
     1556  1558  1560  1562    1  0.0000000000      2.1756800000       3
     1556  1558  1560  1582    1  0.0000000000      2.1756800000       3
     1559  1558  1560  1561    1  0.0000000000      0.5020800000       3
     1559  1558  1560  1562    1  0.0000000000      0.5439200000       3
     1559  1558  1560  1582    1  0.0000000000      0.5439200000       3
     1585  1558  1560  1561    1  0.0000000000      0.6508444444       3
     1585  1558  1560  1562    1  0.0000000000      0.6508444444       3
     1585  1558  1560  1582    1  0.0000000000      0.6508444444       3
     1556  1558  1585  1555    1  180.0000000000    1.0041600000       2
     1556  1558  1585  1586    1  180.0000000000    1.0041600000       2
     1559  1558  1585  1555    1  0.0000000000      0.0000000000       1
     1559  1558  1585  1586    1  0.0000000000      0.0000000000       1
     1560  1558  1585  1555    1  180.0000000000    1.0041600000       2
     1560  1558  1585  1586    1  180.0000000000    1.0041600000       2
     4504  4506  4508  4509    1  0.0000000000      0.6508444444       3
     4504  4506  4508  4510    1  0.0000000000      0.6508444444       3
     4507  4506  4508  4509    1  0.0000000000      0.6508444444       3
     6401  4506  4508  4509    1  0.0000000000      0.6508444444       3
     6401  4506  4508  6402    1  0.0000000000      0.6508444444       3
     4504  4506  4508  6402    1  0.0000000000      0.6508444444       3
     1528  1529  1530  1531    1  180.0000000000    15.1670000000      2
     1528  1529  1530  1532    1  180.0000000000    15.1670000000      2
     1551  1529  1530  1531    1  180.0000000000    15.1670000000      2
     1551  1529  1530  1532    1  180.0000000000    15.1670000000      2
     1528  1529  1551  1552    1  180.0000000000    4.1840000000       2
     1528  1529  1551  1586    1  180.0000000000    4.1840000000       2
     1530  1529  1551  1552    1  180.0000000000    4.1840000000       2
     1530  1529  1551  1586    1  180.0000000000    4.1840000000       2
     1562  1564  1565  1566    1  180.0000000000    15.1670000000      2
     1562  1564  1565  1578    1  180.0000000000    15.1670000000      2
     1573  1564  1565  1566    1  180.0000000000    15.1670000000      2
     1573  1564  1565  1578    1  180.0000000000    15.1670000000      2
     1562  1564  1573  1574    1  180.0000000000    15.1670000000      2
     1565  1564  1573  1572    1  180.0000000000    15.1670000000      2
     1565  1564  1573  1574    1  180.0000000000    15.1670000000      2
     1558  1560  1562  1563    1  0.0000000000      0.5439200000       3
     1558  1560  1562  1564    1  0.0000000000      0.6508444444       3
     1558  1560  1562  1578    1  0.0000000000      2.1756800000       3
     1561  1560  1562  1563    1  0.0000000000      0.5020800000       3
     1561  1560  1562  1564    1  0.0000000000      0.6508444444       3
     1561  1560  1562  1578    1  0.0000000000      0.5439200000       3
     1582  1560  1562  1563    1  0.0000000000      0.5439200000       3
     1582  1560  1562  1564    1  0.0000000000      0.6508444444       3
     1582  1560  1562  1578    1  0.0000000000      2.1756800000       3
     1558  1560  1582  1580    1  0.0000000000      0.6508444444       3
     1558  1560  1582  1583    1  0.0000000000      0.6508444444       3
     1558  1560  1582  1584    1  0.0000000000      0.6508444444       3
     1561  1560  1582  1580    1  0.0000000000      0.5439200000       3
     1561  1560  1582  1583    1  0.0000000000      0.5020800000       3
     1561  1560  1582  1584    1  0.0000000000      0.5020800000       3
     1562  1560  1582  1580    1  0.0000000000      0.6508444444       3
     1562  1560  1582  1583    1  0.0000000000      0.6508444444       3
     1562  1560  1582  1584    1  0.0000000000      0.6508444444       3
     1552  1553  1555  1556    1  180.0000000000    15.1670000000      2
     1552  1553  1555  1585    1  180.0000000000    15.1670000000      2
     1554  1553  1555  1556    1  180.0000000000    15.1670000000      2
     1554  1553  1555  1585    1  180.0000000000    15.1670000000      2
     4510  4512  4504  4506    1  0.0000000000      0.6508444444       3
     4504  4512  4510  4508    1  0.0000000000      0.6508444444       3
     2459  2461  2462  2463    1  180.0000000000    15.1670000000      2
     2459  2461  2462  2475    1  180.0000000000    15.1670000000      2
     2470  2461  2462  2463    1  180.0000000000    15.1670000000      2
     2470  2461  2462  2475    1  180.0000000000    15.1670000000      2
     2459  2461  2470  2471    1  180.0000000000    15.1670000000      2
     2462  2461  2470  2469    1  180.0000000000    15.1670000000      2
     2462  2461  2470  2471    1  180.0000000000    15.1670000000      2
     2457  2459  2461  2462    1  180.0000000000    1.0041600000       2
     2457  2459  2461  2470    1  180.0000000000    1.0041600000       2
     2460  2459  2461  2462    1  0.0000000000      0.0000000000       1
     2460  2459  2461  2470    1  0.0000000000      0.0000000000       1
     2475  2459  2461  2462    1  180.0000000000    1.0041600000       2
     2475  2459  2461  2470    1  180.0000000000    1.0041600000       2
     2457  2459  2475  2462    1  0.0000000000      0.6508444444       3
     2457  2459  2475  2476    1  0.0000000000      0.6508444444       3
     2457  2459  2475  2477    1  0.0000000000      0.6508444444       3
     2460  2459  2475  2462    1  0.0000000000      0.6508444444       3
     2460  2459  2475  2476    1  0.0000000000      0.6508444444       3
     2460  2459  2475  2477    1  0.0000000000      0.6508444444       3
     2461  2459  2475  2462    1  0.0000000000      0.6508444444       3
     2461  2459  2475  2476    1  0.0000000000      0.6508444444       3
     2461  2459  2475  2477    1  0.0000000000      0.6508444444       3
     4502  4504  4506  4507    1  0.0000000000      0.5439200000       3
     4502  4504  4506  4508    1  0.0000000000      2.1756800000       3
     4505  4504  4506  4507    1  0.0000000000      0.5020800000       3
     4505  4504  4506  4508    1  0.0000000000      0.5439200000       3
     4512  4504  4506  4507    1  0.0000000000      0.5439200000       3
     4512  4504  4506  4508    1  0.0000000000      2.1756800000       3
     4502  4504  4512  4510    1  0.0000000000      0.6508444444       3
     4502  4504  4512  4513    1  0.0000000000      0.6508444444       3
     4502  4504  4512  4514    1  0.0000000000      0.6508444444       3
     4505  4504  4512  4510    1  0.0000000000      0.5439200000       3
     4505  4504  4512  4513    1  0.0000000000      0.5020800000       3
     4505  4504  4512  4514    1  0.0000000000      0.5020800000       3
     4506  4504  4512  4513    1  0.0000000000      0.6508444444       3
     4506  4504  4512  4514    1  0.0000000000      0.6508444444       3
     4506  4504  4502  4500    1  0.0000000000      2.1756800000       3
     4506  4504  4502  4503    1  0.0000000000      0.5439200000       3
     4506  4504  4502  4515    1  0.0000000000      0.6508444444       3
     4505  4504  4506  6401    1  0.0000000000      0.6508444444       3
     4512  4504  4506  6401    1  0.0000000000      0.6508444444       3
     4502  4504  4506  6401    1  0.0000000000      0.6508444444       3
     1555  1585  1586  1551    1  180.0000000000    15.1670000000      2
     1555  1585  1586  1587    1  180.0000000000    15.1670000000      2
     1558  1585  1586  1551    1  180.0000000000    15.1670000000      2
     1558  1585  1586  1587    1  180.0000000000    15.1670000000      2
     1529  1551  1552  1523    1  180.0000000000    15.1670000000      2
     1529  1551  1552  1553    1  180.0000000000    15.1670000000      2
     1586  1551  1552  1523    1  180.0000000000    15.1670000000      2
     1586  1551  1552  1553    1  180.0000000000    15.1670000000      2
     1529  1551  1586  1585    1  180.0000000000    15.1670000000      2
     1529  1551  1586  1587    1  180.0000000000    15.1670000000      2
     1552  1551  1586  1585    1  180.0000000000    15.1670000000      2
     1552  1551  1586  1587    1  180.0000000000    15.1670000000      2
     2459  2475  2477  2453    1  0.0000000000      2.1756800000       3
     2459  2475  2477  2478    1  0.0000000000      0.5439200000       3
     2459  2475  2477  2479    1  0.0000000000      2.1756800000       3
     2462  2475  2477  2453    1  0.0000000000      0.6508444444       3
     2462  2475  2477  2478    1  0.0000000000      0.6508444444       3
     2462  2475  2477  2479    1  0.0000000000      0.6508444444       3
     2476  2475  2477  2453    1  0.0000000000      0.5439200000       3
     2476  2475  2477  2478    1  0.0000000000      0.5020800000       3
     2476  2475  2477  2479    1  0.0000000000      0.5439200000       3
     1523  1528  1529  1530    1  180.0000000000    15.1670000000      2
     1523  1528  1529  1551    1  180.0000000000    15.1670000000      2
     1549  1528  1529  1530    1  180.0000000000    15.1670000000      2
     1549  1528  1529  1551    1  180.0000000000    15.1670000000      2
     1523  1528  1549  1548    1  180.0000000000    15.1670000000      2
     1523  1528  1549  1550    1  180.0000000000    15.1670000000      2
     1529  1528  1549  1548    1  180.0000000000    15.1670000000      2
     1529  1528  1549  1550    1  180.0000000000    15.1670000000      2
     6394  6395  6396  6397    1  180.0000000000    15.1670000000      2
     6394  6395  6396  6401    1  180.0000000000    15.1670000000      2
     6408  6395  6396  6397    1  180.0000000000    15.1670000000      2
     6394  6395  6408  6392    1  180.0000000000    1.0041600000       2
     6394  6395  6408  6409    1  0.0000000000      0.0000000000       1
     6394  6395  6408  6410    1  180.0000000000    1.0041600000       2
     6396  6395  6408  6392    1  180.0000000000    1.0041600000       2
     6396  6395  6408  6409    1  0.0000000000      0.0000000000       1
     6396  6395  6408  6410    1  180.0000000000    1.0041600000       2
     1555  1556  1558  1559    1  0.0000000000      0.6508444444       3
     1555  1556  1558  1560    1  0.0000000000      0.6508444444       3
     1555  1556  1558  1585    1  0.0000000000      0.6508444444       3
     1557  1556  1558  1559    1  0.0000000000      0.6508444444       3
     1557  1556  1558  1560    1  0.0000000000      0.6508444444       3
     1557  1556  1558  1585    1  0.0000000000      0.6508444444       3
     1580  1556  1558  1559    1  0.0000000000      0.6508444444       3
     1580  1556  1558  1560    1  0.0000000000      0.6508444444       3
     1580  1556  1558  1585    1  0.0000000000      0.6508444444       3
     1555  1556  1580  1578    1  0.0000000000      0.6508444444       3
     1555  1556  1580  1581    1  0.0000000000      0.6508444444       3
     1555  1556  1580  1582    1  0.0000000000      0.6508444444       3
     1557  1556  1580  1578    1  0.0000000000      0.5439200000       3
     1557  1556  1580  1581    1  0.0000000000      0.5020800000       3
     1557  1556  1580  1582    1  0.0000000000      0.5439200000       3
     1558  1556  1580  1578    1  0.0000000000      2.1756800000       3
     1558  1556  1580  1581    1  0.0000000000      0.5439200000       3
     1558  1556  1580  1582    1  0.0000000000      2.1756800000       3
     1575  1574  1573  1572    1  0.0000000000      0.0000000000       2
     1576  1574  1573  1572    1  0.0000000000      0.0000000000       2
     1577  1574  1573  1572    1  0.0000000000      0.0000000000       2
     1564  1565  1566  1567    1  180.0000000000    15.1670000000      2
     1564  1565  1566  1571    1  180.0000000000    15.1670000000      2
     1578  1565  1566  1567    1  180.0000000000    15.1670000000      2
     1564  1565  1578  1562    1  180.0000000000    1.0041600000       2
     1564  1565  1578  1579    1  0.0000000000      0.0000000000       1
     1564  1565  1578  1580    1  180.0000000000    1.0041600000       2
     1566  1565  1578  1562    1  180.0000000000    1.0041600000       2
     1566  1565  1578  1579    1  0.0000000000      0.0000000000       1
     1566  1565  1578  1580    1  180.0000000000    1.0041600000       2
     1553  1555  1556  1557    1  0.0000000000      0.0000000000       1
     1553  1555  1556  1558    1  180.0000000000    1.0041600000       2
     1553  1555  1556  1580    1  180.0000000000    1.0041600000       2
     1585  1555  1556  1557    1  0.0000000000      0.0000000000       1
     1585  1555  1556  1558    1  180.0000000000    1.0041600000       2
     1585  1555  1556  1580    1  180.0000000000    1.0041600000       2
     1553  1555  1585  1558    1  180.0000000000    15.1670000000      2
     1553  1555  1585  1586    1  180.0000000000    15.1670000000      2
     1556  1555  1585  1558    1  180.0000000000    15.1670000000      2
     1556  1555  1585  1586    1  180.0000000000    15.1670000000      2
     2468  2469  2470  2461    1  180.0000000000    15.1670000000      2
     1194  2469  2468  1196    1  180.0000000000    15.1670000000      2
     2468  2469  1194  1195    1  0.0000000000      0.0000000000       1
     2470  2469  1194  1195    1  0.0000000000      0.0000000000       1
     2468  2469  1194  1196    1  180.0000000000    1.0041600000       2
     2470  2469  1194  1196    1  180.0000000000    1.0041600000       2
     2468  2469  1194  1192    1  180.0000000000    1.0041600000       2
     2470  2469  1194  1192    1  180.0000000000    1.0041600000       2
     2470  2469  2468  1196    1  180.0000000000    15.1670000000      2
     6395  6396  6397  6398    1  0.0000000000      0.0000000000       2
     6395  6396  6397  6399    1  0.0000000000      0.0000000000       2
     6395  6396  6397  6400    1  0.0000000000      0.0000000000       2
     6395  6396  6401  6402    1  180.0000000000    15.1670000000      2
     6397  6396  6401  6402    1  180.0000000000    15.1670000000      2
     6401  6396  6395  6408    1  180.0000000000    15.1670000000      2
     6397  6396  6401  4506    1  180.0000000000    15.1670000000      2
     6395  6396  6401  4506    1  180.0000000000    15.1670000000      2
     6396  6401  6402  6403    1  180.0000000000    15.1670000000      2
     4506  6401  6402  4508    1  180.0000000000    15.1670000000      2
     6396  6401  4506  4504    1  180.0000000000    1.0041600000       2
     6402  6401  4506  4504    1  180.0000000000    1.0041600000       2
     6396  6401  4506  4507    1  0.0000000000      0.0000000000       1
     6402  6401  4506  4507    1  0.0000000000      0.0000000000       1
     6396  6401  4506  4508    1  180.0000000000    1.0041600000       2
     6402  6401  4506  4508    1  180.0000000000    1.0041600000       2
     6396  6401  6402  4508    1  180.0000000000    15.1670000000      2
     6398  6397  6396  6401    1  0.0000000000      0.0000000000       2
     6399  6397  6396  6401    1  0.0000000000      0.0000000000       2
     6400  6397  6396  6401    1  0.0000000000      0.0000000000       2
     1560  1562  1564  1565    1  180.0000000000    1.0041600000       2
     1560  1562  1564  1573    1  180.0000000000    1.0041600000       2
     1563  1562  1564  1565    1  0.0000000000      0.0000000000       1
     1563  1562  1564  1573    1  0.0000000000      0.0000000000       1
     1578  1562  1564  1565    1  180.0000000000    1.0041600000       2
     1578  1562  1564  1573    1  180.0000000000    1.0041600000       2
     1560  1562  1578  1565    1  0.0000000000      0.6508444444       3
     1560  1562  1578  1579    1  0.0000000000      0.6508444444       3
     1560  1562  1578  1580    1  0.0000000000      0.6508444444       3
     1563  1562  1578  1565    1  0.0000000000      0.6508444444       3
     1563  1562  1578  1579    1  0.0000000000      0.6508444444       3
     1563  1562  1578  1580    1  0.0000000000      0.6508444444       3
     1564  1562  1578  1565    1  0.0000000000      0.6508444444       3
     1564  1562  1578  1579    1  0.0000000000      0.6508444444       3
     1564  1562  1578  1580    1  0.0000000000      0.6508444444       3
     1562  1578  1580  1556    1  0.0000000000      2.1756800000       3
     1562  1578  1580  1581    1  0.0000000000      0.5439200000       3
     1562  1578  1580  1582    1  0.0000000000      2.1756800000       3
     1565  1578  1580  1556    1  0.0000000000      0.6508444444       3
     1565  1578  1580  1581    1  0.0000000000      0.6508444444       3
     1565  1578  1580  1582    1  0.0000000000      0.6508444444       3
     1579  1578  1580  1556    1  0.0000000000      0.5439200000       3
     1579  1578  1580  1581    1  0.0000000000      0.5020800000       3
     1579  1578  1580  1582    1  0.0000000000      0.5439200000       3
     1192  1194  1196  1197    1  0.0000000000      0.6508444444       3
     1192  1194  1196  1198    1  0.0000000000      0.6508444444       3
     1195  1194  1196  1197    1  0.0000000000      0.6508444444       3
     2469  1194  1196  1197    1  0.0000000000      0.6508444444       3
     2469  1194  1196  2468    1  0.0000000000      0.6508444444       3
     1192  1194  1196  2468    1  0.0000000000      0.6508444444       3
     2003  2002  2006  2007    1  0.0000000000      0.5439200000       3
     2003  2002  2006  2011    1  0.0000000000      0.6508444444       3
     2003  2002  2006  2035    1  0.0000000000      0.6508444444       3
     2004  2002  2006  2007    1  0.0000000000      0.5439200000       3
     2004  2002  2006  2011    1  0.0000000000      0.6508444444       3
     2004  2002  2006  2035    1  0.0000000000      0.6508444444       3
     2005  2002  2006  2007    1  0.0000000000      0.5439200000       3
     2005  2002  2006  2011    1  0.0000000000      0.6508444444       3
     2005  2002  2006  2035    1  0.0000000000      0.6508444444       3
     2002  2006  2007  2008    1  0.0000000000      0.5439200000       3
     2002  2006  2007  2009    1  0.0000000000      0.5439200000       3
     2002  2006  2007  2010    1  0.0000000000      0.5439200000       3
     2011  2006  2007  2008    1  0.0000000000      0.6508444444       3
     2011  2006  2007  2009    1  0.0000000000      0.6508444444       3
     2011  2006  2007  2010    1  0.0000000000      0.6508444444       3
     2035  2006  2007  2008    1  0.0000000000      0.6508444444       3
     2035  2006  2007  2009    1  0.0000000000      0.6508444444       3
     2035  2006  2007  2010    1  0.0000000000      0.6508444444       3
     2002  2006  2011  2012    1  0.0000000000      0.0000000000       2
     2002  2006  2011  2032    1  180.0000000000    1.0041600000       2
     2007  2006  2011  2012    1  0.0000000000      0.0000000000       2
     2007  2006  2011  2032    1  180.0000000000    1.0041600000       2
     2035  2006  2011  2012    1  0.0000000000      0.0000000000       2
     2035  2006  2011  2032    1  180.0000000000    0.0000000000       2
     2002  2006  2035  2034    1  0.0000000000      0.0000000000       2
     2002  2006  2035  2036    1  180.0000000000    1.0041600000       2
     2007  2006  2035  2034    1  0.0000000000      0.0000000000       2
     2007  2006  2035  2036    1  180.0000000000    1.0041600000       2
     2011  2006  2035  2034    1  0.0000000000      0.0000000000       2
     2011  2006  2035  2036    1  180.0000000000    0.0000000000       2
     2357  2379  2380  2351    1  180.0000000000    15.1670000000      2
     2357  2379  2380  2381    1  180.0000000000    15.1670000000      2
     2414  2379  2380  2351    1  180.0000000000    15.1670000000      2
     2414  2379  2380  2381    1  180.0000000000    15.1670000000      2
     2357  2379  2414  2413    1  180.0000000000    15.1670000000      2
     2357  2379  2414  2415    1  180.0000000000    15.1670000000      2
     2380  2379  2414  2413    1  180.0000000000    15.1670000000      2
     2380  2379  2414  2415    1  180.0000000000    15.1670000000      2
     2384  2386  2388  2389    1  0.0000000000      0.5439200000       3
     2384  2386  2388  2390    1  0.0000000000      2.1756800000       3
     2384  2386  2388  2410    1  0.0000000000      2.1756800000       3
     2387  2386  2388  2389    1  0.0000000000      0.5020800000       3
     2387  2386  2388  2390    1  0.0000000000      0.5439200000       3
     2387  2386  2388  2410    1  0.0000000000      0.5439200000       3
     2413  2386  2388  2389    1  0.0000000000      0.6508444444       3
     2413  2386  2388  2390    1  0.0000000000      0.6508444444       3
     2413  2386  2388  2410    1  0.0000000000      0.6508444444       3
     2384  2386  2413  2383    1  180.0000000000    1.0041600000       2
     2384  2386  2413  2414    1  180.0000000000    1.0041600000       2
     2387  2386  2413  2383    1  0.0000000000      0.0000000000       1
     2387  2386  2413  2414    1  0.0000000000      0.0000000000       1
     2388  2386  2413  2383    1  180.0000000000    1.0041600000       2
     2388  2386  2413  2414    1  180.0000000000    1.0041600000       2
     2400  2401  2392  2390    1  180.0000000000    15.1670000000      2
     2402  2401  2400  2399    1  180.0000000000    15.1670000000      2
     2392  2401  2402  2403    1  0.0000000000      0.0000000000       2
     2392  2401  2402  2404    1  0.0000000000      0.0000000000       2
     2392  2401  2402  2405    1  0.0000000000      0.0000000000       2
     2392  2401  2400  642     1  180.0000000000    15.1670000000      2
     2402  2401  2400  642     1  180.0000000000    15.1670000000      2
     2403  2402  2401  2400    1  0.0000000000      0.0000000000       2
     2404  2402  2401  2400    1  0.0000000000      0.0000000000       2
     2405  2402  2401  2400    1  0.0000000000      0.0000000000       2
     2383  2413  2414  2379    1  180.0000000000    15.1670000000      2
     2383  2413  2414  2415    1  180.0000000000    15.1670000000      2
     2386  2413  2414  2379    1  180.0000000000    15.1670000000      2
     2386  2413  2414  2415    1  180.0000000000    15.1670000000      2
     2381  2383  2384  2385    1  0.0000000000      0.0000000000       1
     2381  2383  2384  2386    1  180.0000000000    1.0041600000       2
     2381  2383  2384  2408    1  180.0000000000    1.0041600000       2
     2413  2383  2384  2385    1  0.0000000000      0.0000000000       1
     2413  2383  2384  2386    1  180.0000000000    1.0041600000       2
     2413  2383  2384  2408    1  180.0000000000    1.0041600000       2
     2381  2383  2413  2386    1  180.0000000000    15.1670000000      2
     2381  2383  2413  2414    1  180.0000000000    15.1670000000      2
     2384  2383  2413  2386    1  180.0000000000    15.1670000000      2
     2384  2383  2413  2414    1  180.0000000000    15.1670000000      2
     2380  2381  2383  2384    1  180.0000000000    15.1670000000      2
     2380  2381  2383  2413    1  180.0000000000    15.1670000000      2
     2382  2381  2383  2384    1  180.0000000000    15.1670000000      2
     2382  2381  2383  2413    1  180.0000000000    15.1670000000      2
     2603  2602  2601  2606    1  0.0000000000      0.0000000000       2
     2604  2602  2601  2606    1  0.0000000000      0.0000000000       2
     2605  2602  2601  2606    1  0.0000000000      0.0000000000       2
     2390  2392  2393  2394    1  180.0000000000    15.1670000000      2
     2390  2392  2393  2406    1  180.0000000000    15.1670000000      2
     2401  2392  2393  2394    1  180.0000000000    15.1670000000      2
     2401  2392  2393  2406    1  180.0000000000    15.1670000000      2
     2390  2392  2401  2402    1  180.0000000000    15.1670000000      2
     2393  2392  2401  2400    1  180.0000000000    15.1670000000      2
     2393  2392  2401  2402    1  180.0000000000    15.1670000000      2
     2356  2357  2358  2359    1  180.0000000000    15.1670000000      2
     2356  2357  2358  2360    1  180.0000000000    15.1670000000      2
     2379  2357  2358  2359    1  180.0000000000    15.1670000000      2
     2379  2357  2358  2360    1  180.0000000000    15.1670000000      2
     2356  2357  2379  2380    1  180.0000000000    4.1840000000       2
     2356  2357  2379  2414    1  180.0000000000    4.1840000000       2
     2358  2357  2379  2380    1  180.0000000000    4.1840000000       2
     2358  2357  2379  2414    1  180.0000000000    4.1840000000       2
     2351  2380  2381  2382    1  180.0000000000    15.1670000000      2
     2351  2380  2381  2383    1  180.0000000000    15.1670000000      2
     2379  2380  2381  2382    1  180.0000000000    15.1670000000      2
     2379  2380  2381  2383    1  180.0000000000    15.1670000000      2
     2392  2393  2394  2395    1  180.0000000000    15.1670000000      2
     2392  2393  2394  2399    1  180.0000000000    15.1670000000      2
     2406  2393  2394  2395    1  180.0000000000    15.1670000000      2
     2392  2393  2406  2390    1  180.0000000000    1.0041600000       2
     2392  2393  2406  2407    1  0.0000000000      0.0000000000       1
     2392  2393  2406  2408    1  180.0000000000    1.0041600000       2
     2394  2393  2406  2390    1  180.0000000000    1.0041600000       2
     2394  2393  2406  2407    1  0.0000000000      0.0000000000       1
     2394  2393  2406  2408    1  180.0000000000    1.0041600000       2
     2386  2388  2390  2391    1  0.0000000000      0.5439200000       3
     2386  2388  2390  2392    1  0.0000000000      0.6508444444       3
     2386  2388  2390  2406    1  0.0000000000      2.1756800000       3
     2389  2388  2390  2391    1  0.0000000000      0.5020800000       3
     2389  2388  2390  2392    1  0.0000000000      0.6508444444       3
     2389  2388  2390  2406    1  0.0000000000      0.5439200000       3
     2410  2388  2390  2391    1  0.0000000000      0.5439200000       3
     2410  2388  2390  2392    1  0.0000000000      0.6508444444       3
     2410  2388  2390  2406    1  0.0000000000      2.1756800000       3
     2386  2388  2410  2408    1  0.0000000000      0.6508444444       3
     2386  2388  2410  2411    1  0.0000000000      0.6508444444       3
     2386  2388  2410  2412    1  0.0000000000      0.6508444444       3
     2389  2388  2410  2408    1  0.0000000000      0.5439200000       3
     2389  2388  2410  2411    1  0.0000000000      0.5020800000       3
     2389  2388  2410  2412    1  0.0000000000      0.5020800000       3
     2390  2388  2410  2408    1  0.0000000000      0.6508444444       3
     2390  2388  2410  2411    1  0.0000000000      0.6508444444       3
     2390  2388  2410  2412    1  0.0000000000      0.6508444444       3
     2388  2390  2392  2393    1  180.0000000000    1.0041600000       2
     2388  2390  2392  2401    1  180.0000000000    1.0041600000       2
     2391  2390  2392  2393    1  0.0000000000      0.0000000000       1
     2391  2390  2392  2401    1  0.0000000000      0.0000000000       1
     2406  2390  2392  2393    1  180.0000000000    1.0041600000       2
     2406  2390  2392  2401    1  180.0000000000    1.0041600000       2
     2388  2390  2406  2393    1  0.0000000000      0.6508444444       3
     2388  2390  2406  2407    1  0.0000000000      0.6508444444       3
     2388  2390  2406  2408    1  0.0000000000      0.6508444444       3
     2391  2390  2406  2393    1  0.0000000000      0.6508444444       3
     2391  2390  2406  2407    1  0.0000000000      0.6508444444       3
     2391  2390  2406  2408    1  0.0000000000      0.6508444444       3
     2392  2390  2406  2393    1  0.0000000000      0.6508444444       3
     2392  2390  2406  2407    1  0.0000000000      0.6508444444       3
     2392  2390  2406  2408    1  0.0000000000      0.6508444444       3
     2600  2601  2602  2603    1  0.0000000000      0.0000000000       2
     2600  2601  2602  2604    1  0.0000000000      0.0000000000       2
     2600  2601  2602  2605    1  0.0000000000      0.0000000000       2
     2600  2601  2606  2607    1  180.0000000000    15.1670000000      2
     2602  2601  2606  2607    1  180.0000000000    15.1670000000      2
     2606  2601  2600  2613    1  180.0000000000    15.1670000000      2
     2602  2601  2606  1746    1  180.0000000000    15.1670000000      2
     2600  2601  2606  1746    1  180.0000000000    15.1670000000      2
     2383  2384  2386  2387    1  0.0000000000      0.6508444444       3
     2383  2384  2386  2388    1  0.0000000000      0.6508444444       3
     2383  2384  2386  2413    1  0.0000000000      0.6508444444       3
     2385  2384  2386  2387    1  0.0000000000      0.6508444444       3
     2385  2384  2386  2388    1  0.0000000000      0.6508444444       3
     2385  2384  2386  2413    1  0.0000000000      0.6508444444       3
     2408  2384  2386  2387    1  0.0000000000      0.6508444444       3
     2408  2384  2386  2388    1  0.0000000000      0.6508444444       3
     2408  2384  2386  2413    1  0.0000000000      0.6508444444       3
     2383  2384  2408  2406    1  0.0000000000      0.6508444444       3
     2383  2384  2408  2409    1  0.0000000000      0.6508444444       3
     2383  2384  2408  2410    1  0.0000000000      0.6508444444       3
     2385  2384  2408  2406    1  0.0000000000      0.5439200000       3
     2385  2384  2408  2409    1  0.0000000000      0.5020800000       3
     2385  2384  2408  2410    1  0.0000000000      0.5439200000       3
     2386  2384  2408  2406    1  0.0000000000      2.1756800000       3
     2386  2384  2408  2409    1  0.0000000000      0.5439200000       3
     2386  2384  2408  2410    1  0.0000000000      2.1756800000       3
     2006  2035  2036  2037    1  180.0000000000    15.1670000000      2
     2006  2035  2036  2038    1  180.0000000000    15.1670000000      2
     2034  2035  2036  2037    1  180.0000000000    15.1670000000      2
     2034  2035  2036  2038    1  180.0000000000    15.1670000000      2
     2351  2356  2357  2358    1  180.0000000000    15.1670000000      2
     2351  2356  2357  2379    1  180.0000000000    15.1670000000      2
     2377  2356  2357  2358    1  180.0000000000    15.1670000000      2
     2377  2356  2357  2379    1  180.0000000000    15.1670000000      2
     2351  2356  2377  2376    1  180.0000000000    15.1670000000      2
     2351  2356  2377  2378    1  180.0000000000    15.1670000000      2
     2357  2356  2377  2376    1  180.0000000000    15.1670000000      2
     2357  2356  2377  2378    1  180.0000000000    15.1670000000      2
     2390  2406  2408  2384    1  0.0000000000      2.1756800000       3
     2390  2406  2408  2409    1  0.0000000000      0.5439200000       3
     2390  2406  2408  2410    1  0.0000000000      2.1756800000       3
     2393  2406  2408  2384    1  0.0000000000      0.6508444444       3
     2393  2406  2408  2409    1  0.0000000000      0.6508444444       3
     2393  2406  2408  2410    1  0.0000000000      0.6508444444       3
     2407  2406  2408  2384    1  0.0000000000      0.5439200000       3
     2407  2406  2408  2409    1  0.0000000000      0.5020800000       3
     2407  2406  2408  2410    1  0.0000000000      0.5439200000       3
     2012  2034  2035  2006    1  180.0000000000    15.1670000000      2
     2012  2034  2035  2036    1  180.0000000000    15.1670000000      2
     2069  2034  2035  2006    1  180.0000000000    15.1670000000      2
     2069  2034  2035  2036    1  180.0000000000    15.1670000000      2
     2012  2034  2069  2068    1  180.0000000000    15.1670000000      2
     2012  2034  2069  2070    1  180.0000000000    15.1670000000      2
     2035  2034  2069  2068    1  180.0000000000    15.1670000000      2
     2035  2034  2069  2070    1  180.0000000000    15.1670000000      2
     2006  2011  2012  2013    1  180.0000000000    15.1670000000      2
     2006  2011  2012  2034    1  180.0000000000    15.1670000000      2
     2032  2011  2012  2013    1  180.0000000000    15.1670000000      2
     2032  2011  2012  2034    1  180.0000000000    15.1670000000      2
     2006  2011  2032  2031    1  180.0000000000    15.1670000000      2
     2006  2011  2032  2033    1  180.0000000000    15.1670000000      2
     2012  2011  2032  2031    1  180.0000000000    15.1670000000      2
     2012  2011  2032  2033    1  180.0000000000    15.1670000000      2
     2051  2050  2049  2054    1  0.0000000000      0.0000000000       2
     2052  2050  2049  2054    1  0.0000000000      0.0000000000       2
     2053  2050  2049  2054    1  0.0000000000      0.0000000000       2
     2347  2351  2352  2353    1  0.0000000000      0.5439200000       3
     2347  2351  2352  2354    1  0.0000000000      0.5439200000       3
     2347  2351  2352  2355    1  0.0000000000      0.5439200000       3
     2356  2351  2352  2353    1  0.0000000000      0.6508444444       3
     2356  2351  2352  2354    1  0.0000000000      0.6508444444       3
     2356  2351  2352  2355    1  0.0000000000      0.6508444444       3
     2380  2351  2352  2353    1  0.0000000000      0.6508444444       3
     2380  2351  2352  2354    1  0.0000000000      0.6508444444       3
     2380  2351  2352  2355    1  0.0000000000      0.6508444444       3
     2347  2351  2356  2357    1  0.0000000000      0.0000000000       2
     2347  2351  2356  2377    1  180.0000000000    1.0041600000       2
     2352  2351  2356  2357    1  0.0000000000      0.0000000000       2
     2352  2351  2356  2377    1  180.0000000000    1.0041600000       2
     2380  2351  2356  2357    1  0.0000000000      0.0000000000       2
     2380  2351  2356  2377    1  180.0000000000    0.0000000000       2
     2347  2351  2380  2379    1  0.0000000000      0.0000000000       2
     2347  2351  2380  2381    1  180.0000000000    1.0041600000       2
     2352  2351  2380  2379    1  0.0000000000      0.0000000000       2
     2352  2351  2380  2381    1  180.0000000000    1.0041600000       2
     2356  2351  2380  2379    1  0.0000000000      0.0000000000       2
     2356  2351  2380  2381    1  180.0000000000    0.0000000000       2
     2399  2400  2401  2392    1  180.0000000000    15.1670000000      2
     2401  2400  2399  644     1  180.0000000000    15.1670000000      2
     2399  2400  642   640     1  180.0000000000    1.0041600000       2
     2401  2400  642   640     1  180.0000000000    1.0041600000       2
     2399  2400  642   643     1  0.0000000000      0.0000000000       1
     2401  2400  642   643     1  0.0000000000      0.0000000000       1
     2399  2400  642   644     1  180.0000000000    1.0041600000       2
     2401  2400  642   644     1  180.0000000000    1.0041600000       2
     2399  2394  2393  2406    1  180.0000000000    15.1670000000      2
     2393  2394  2395  2396    1  0.0000000000      0.0000000000       2
     2393  2394  2395  2397    1  0.0000000000      0.0000000000       2
     2393  2394  2395  2398    1  0.0000000000      0.0000000000       2
     2393  2394  2399  2400    1  180.0000000000    15.1670000000      2
     2395  2394  2399  2400    1  180.0000000000    15.1670000000      2
     2393  2394  2399  644     1  180.0000000000    15.1670000000      2
     2395  2394  2399  644     1  180.0000000000    15.1670000000      2
     2601  2606  2607  2608    1  180.0000000000    15.1670000000      2
     1746  2606  2607  1748    1  180.0000000000    15.1670000000      2
     2607  2606  1746  1744    1  180.0000000000    1.0041600000       2
     2601  2606  1746  1744    1  180.0000000000    1.0041600000       2
     2607  2606  1746  1747    1  0.0000000000      0.0000000000       1
     2601  2606  1746  1747    1  0.0000000000      0.0000000000       1
     2607  2606  1746  1748    1  180.0000000000    1.0041600000       2
     2601  2606  1746  1748    1  180.0000000000    1.0041600000       2
     2601  2606  2607  1748    1  180.0000000000    15.1670000000      2
     2038  2068  2069  2034    1  180.0000000000    15.1670000000      2
     2038  2068  2069  2070    1  180.0000000000    15.1670000000      2
     2041  2068  2069  2034    1  180.0000000000    15.1670000000      2
     2041  2068  2069  2070    1  180.0000000000    15.1670000000      2
     2555  2554  2558  2559    1  0.0000000000      0.5439200000       3
     2555  2554  2558  2563    1  0.0000000000      0.6508444444       3
     2555  2554  2558  2587    1  0.0000000000      0.6508444444       3
     2556  2554  2558  2559    1  0.0000000000      0.5439200000       3
     2556  2554  2558  2563    1  0.0000000000      0.6508444444       3
     2556  2554  2558  2587    1  0.0000000000      0.6508444444       3
     2557  2554  2558  2559    1  0.0000000000      0.5439200000       3
     2557  2554  2558  2563    1  0.0000000000      0.6508444444       3
     2557  2554  2558  2587    1  0.0000000000      0.6508444444       3
     2035  2036  2038  2039    1  180.0000000000    15.1670000000      2
     2035  2036  2038  2068    1  180.0000000000    15.1670000000      2
     2037  2036  2038  2039    1  180.0000000000    15.1670000000      2
     2037  2036  2038  2068    1  180.0000000000    15.1670000000      2
     2567  2568  2570  2571    1  0.0000000000      0.6508444444       3
     2567  2568  2570  2572    1  0.0000000000      0.6508444444       3
     2567  2568  2570  2583    1  0.0000000000      0.6508444444       3
     2569  2568  2570  2571    1  0.0000000000      0.6508444444       3
     2569  2568  2570  2572    1  0.0000000000      0.6508444444       3
     2569  2568  2570  2583    1  0.0000000000      0.6508444444       3
     2578  2568  2570  2571    1  0.0000000000      0.6508444444       3
     2578  2568  2570  2572    1  0.0000000000      0.6508444444       3
     2578  2568  2570  2583    1  0.0000000000      0.6508444444       3
     2567  2568  2578  2579    1  0.0000000000      0.6508444444       3
     2567  2568  2578  2580    1  0.0000000000      0.6508444444       3
     2569  2568  2578  2579    1  0.0000000000      0.5020800000       3
     2569  2568  2578  2580    1  0.0000000000      0.5439200000       3
     2570  2568  2578  2579    1  0.0000000000      0.5439200000       3
     2570  2568  2578  2580    1  0.0000000000      2.1756800000       3
     2563  2564  2565  2566    1  180.0000000000    15.1670000000      2
     2563  2564  2565  2567    1  180.0000000000    15.1670000000      2
     2586  2564  2565  2566    1  180.0000000000    15.1670000000      2
     2586  2564  2565  2567    1  180.0000000000    15.1670000000      2
     2563  2564  2586  2587    1  180.0000000000    4.1840000000       2
     2563  2564  2586  2621    1  180.0000000000    4.1840000000       2
     2565  2564  2586  2587    1  180.0000000000    4.1840000000       2
     2565  2564  2586  2621    1  180.0000000000    4.1840000000       2
     2636  2652  2653  2632    1  180.0000000000    15.1670000000      2
     2636  2652  2653  2654    1  180.0000000000    15.1670000000      2
     2639  2652  2653  2632    1  180.0000000000    15.1670000000      2
     2639  2652  2653  2654    1  180.0000000000    15.1670000000      2
     1742  1744  1746  1747    1  0.0000000000      0.5439200000       3
     1742  1744  1746  1748    1  0.0000000000      2.1756800000       3
     1745  1744  1746  1747    1  0.0000000000      0.5020800000       3
     1745  1744  1746  1748    1  0.0000000000      0.5439200000       3
     1752  1744  1746  1747    1  0.0000000000      0.5439200000       3
     1752  1744  1746  1748    1  0.0000000000      2.1756800000       3
     1742  1744  1752  1750    1  0.0000000000      0.6508444444       3
     1742  1744  1752  1753    1  0.0000000000      0.6508444444       3
     1742  1744  1752  1754    1  0.0000000000      0.6508444444       3
     1745  1744  1752  1750    1  0.0000000000      0.5439200000       3
     1745  1744  1752  1753    1  0.0000000000      0.5020800000       3
     1745  1744  1752  1754    1  0.0000000000      0.5020800000       3
     1746  1744  1752  1753    1  0.0000000000      0.6508444444       3
     1746  1744  1752  1754    1  0.0000000000      0.6508444444       3
     1746  1744  1742  1740    1  0.0000000000      2.1756800000       3
     1746  1744  1742  1743    1  0.0000000000      0.5439200000       3
     1746  1744  1742  1755    1  0.0000000000      0.6508444444       3
     1745  1744  1746  2606    1  0.0000000000      0.6508444444       3
     1752  1744  1746  2606    1  0.0000000000      0.6508444444       3
     1742  1744  1746  2606    1  0.0000000000      0.6508444444       3
     1744  1746  1748  1749    1  0.0000000000      0.6508444444       3
     1744  1746  1748  1750    1  0.0000000000      0.6508444444       3
     1747  1746  1748  1749    1  0.0000000000      0.6508444444       3
     2606  1746  1748  1749    1  0.0000000000      0.6508444444       3
     2606  1746  1748  2607    1  0.0000000000      0.6508444444       3
     1744  1746  1748  2607    1  0.0000000000      0.6508444444       3
     2606  2607  2608  2599    1  180.0000000000    15.1670000000      2
     2608  2607  2606  1746    1  180.0000000000    15.1670000000      2
     2606  2607  1748  1749    1  0.0000000000      0.0000000000       1
     2608  2607  1748  1749    1  0.0000000000      0.0000000000       1
     2606  2607  1748  1750    1  180.0000000000    1.0041600000       2
     2608  2607  1748  1750    1  180.0000000000    1.0041600000       2
     2606  2607  1748  1746    1  180.0000000000    1.0041600000       2
     2608  2607  1748  1746    1  180.0000000000    1.0041600000       2
     2624  2623  2627  2628    1  0.0000000000      0.5439200000       3
     2624  2623  2627  2632    1  0.0000000000      0.6508444444       3
     2624  2623  2627  2656    1  0.0000000000      0.6508444444       3
     2625  2623  2627  2628    1  0.0000000000      0.5439200000       3
     2625  2623  2627  2632    1  0.0000000000      0.6508444444       3
     2625  2623  2627  2656    1  0.0000000000      0.6508444444       3
     2626  2623  2627  2628    1  0.0000000000      0.5439200000       3
     2626  2623  2627  2632    1  0.0000000000      0.6508444444       3
     2626  2623  2627  2656    1  0.0000000000      0.6508444444       3
     2384  2408  2410  2388    1  0.0000000000      0.6508444444       3
     2384  2408  2410  2411    1  0.0000000000      0.6508444444       3
     2384  2408  2410  2412    1  0.0000000000      0.6508444444       3
     2406  2408  2410  2388    1  0.0000000000      0.6508444444       3
     2406  2408  2410  2411    1  0.0000000000      0.6508444444       3
     2406  2408  2410  2412    1  0.0000000000      0.6508444444       3
     2409  2408  2410  2388    1  0.0000000000      0.5439200000       3
     2409  2408  2410  2411    1  0.0000000000      0.5020800000       3
     2409  2408  2410  2412    1  0.0000000000      0.5020800000       3
     1750  1748  1746  1747    1  0.0000000000      0.6508444444       3
     1750  1748  1746  2606    1  0.0000000000      0.6508444444       3
     2607  1748  1746  1747    1  0.0000000000      0.6508444444       3
     2633  2655  2656  2627    1  180.0000000000    15.1670000000      2
     2633  2655  2656  2657    1  180.0000000000    15.1670000000      2
     2690  2655  2656  2627    1  180.0000000000    15.1670000000      2
     2690  2655  2656  2657    1  180.0000000000    15.1670000000      2
     2633  2655  2690  2689    1  180.0000000000    15.1670000000      2
     2633  2655  2690  2691    1  180.0000000000    15.1670000000      2
     2656  2655  2690  2689    1  180.0000000000    15.1670000000      2
     2656  2655  2690  2691    1  180.0000000000    15.1670000000      2
     2647  2649  2641  2643    1  0.0000000000      0.6508444444       3
     2641  2649  2647  2645    1  0.0000000000      0.6508444444       3
     2647  2645  2643  2644    1  0.0000000000      0.6508444444       3
     2647  2645  2643  1779    1  0.0000000000      0.6508444444       3
     1778  2645  2643  2644    1  0.0000000000      0.6508444444       3
     6350  6349  6353  6354    1  0.0000000000      0.5439200000       3
     6350  6349  6353  6358    1  0.0000000000      0.6508444444       3
     6350  6349  6353  6382    1  0.0000000000      0.6508444444       3
     6351  6349  6353  6354    1  0.0000000000      0.5439200000       3
     6351  6349  6353  6358    1  0.0000000000      0.6508444444       3
     6351  6349  6353  6382    1  0.0000000000      0.6508444444       3
     6352  6349  6353  6354    1  0.0000000000      0.5439200000       3
     6352  6349  6353  6358    1  0.0000000000      0.6508444444       3
     6352  6349  6353  6382    1  0.0000000000      0.6508444444       3
     1773  1778  1779  1780    1  180.0000000000    15.1670000000      2
     1773  1778  1779  2643    1  180.0000000000    15.1670000000      2
     1779  1778  2645  2643    1  180.0000000000    1.0041600000       2
     1773  1778  2645  2643    1  180.0000000000    1.0041600000       2
     1779  1778  2645  2646    1  0.0000000000      0.0000000000       1
     1773  1778  2645  2646    1  0.0000000000      0.0000000000       1
     1779  1778  2645  2647    1  180.0000000000    1.0041600000       2
     1773  1778  2645  2647    1  180.0000000000    1.0041600000       2
     2632  2633  2634  2635    1  180.0000000000    15.1670000000      2
     2632  2633  2634  2636    1  180.0000000000    15.1670000000      2
     2655  2633  2634  2635    1  180.0000000000    15.1670000000      2
     2655  2633  2634  2636    1  180.0000000000    15.1670000000      2
     2632  2633  2655  2656    1  180.0000000000    4.1840000000       2
     2632  2633  2655  2690    1  180.0000000000    4.1840000000       2
     2634  2633  2655  2656    1  180.0000000000    4.1840000000       2
     2634  2633  2655  2690    1  180.0000000000    4.1840000000       2
     1736  1758  1759  1730    1  180.0000000000    15.1670000000      2
     1736  1758  1759  1760    1  180.0000000000    15.1670000000      2
     1793  1758  1759  1730    1  180.0000000000    15.1670000000      2
     1793  1758  1759  1760    1  180.0000000000    15.1670000000      2
     1736  1758  1793  1792    1  180.0000000000    15.1670000000      2
     1736  1758  1793  1794    1  180.0000000000    15.1670000000      2
     1759  1758  1793  1792    1  180.0000000000    15.1670000000      2
     1759  1758  1793  1794    1  180.0000000000    15.1670000000      2
     1740  1742  1744  1745    1  0.0000000000      0.5439200000       3
     1740  1742  1744  1752    1  0.0000000000      2.1756800000       3
     1743  1742  1744  1745    1  0.0000000000      0.5020800000       3
     1743  1742  1744  1752    1  0.0000000000      0.5439200000       3
     1755  1742  1744  1745    1  0.0000000000      0.6508444444       3
     1755  1742  1744  1752    1  0.0000000000      0.6508444444       3
     1740  1742  1755  1739    1  180.0000000000    1.0041600000       2
     1740  1742  1755  1756    1  180.0000000000    1.0041600000       2
     1743  1742  1755  1739    1  0.0000000000      0.0000000000       1
     1743  1742  1755  1756    1  0.0000000000      0.0000000000       1
     1744  1742  1755  1739    1  180.0000000000    1.0041600000       2
     1744  1742  1755  1756    1  180.0000000000    1.0041600000       2
     2645  2647  2637  2636    1  0.0000000000      0.6508444444       3
     2645  2647  2637  2638    1  0.0000000000      0.5439200000       3
     2645  2647  2637  2639    1  0.0000000000      2.1756800000       3
     2637  2647  2645  2643    1  0.0000000000      2.1756800000       3
     2648  2647  2645  2643    1  0.0000000000      0.5439200000       3
     2649  2647  2645  2643    1  0.0000000000      2.1756800000       3
     2637  2647  2645  2646    1  0.0000000000      0.5439200000       3
     2648  2647  2645  2646    1  0.0000000000      0.5020800000       3
     2649  2647  2645  2646    1  0.0000000000      0.5439200000       3
     2637  2647  2649  2641    1  0.0000000000      0.6508444444       3
     2637  2647  2649  2650    1  0.0000000000      0.6508444444       3
     2637  2647  2649  2651    1  0.0000000000      0.6508444444       3
     2645  2647  2649  2650    1  0.0000000000      0.6508444444       3
     2645  2647  2649  2651    1  0.0000000000      0.6508444444       3
     2648  2647  2649  2641    1  0.0000000000      0.5439200000       3
     2648  2647  2649  2650    1  0.0000000000      0.5020800000       3
     2648  2647  2649  2651    1  0.0000000000      0.5020800000       3
     2637  2647  2645  1778    1  0.0000000000      0.6508444444       3
     2648  2647  2645  1778    1  0.0000000000      0.6508444444       3
     2649  2647  2645  1778    1  0.0000000000      0.6508444444       3
     2568  2570  2572  2573    1  0.0000000000      0.5439200000       3
     2568  2570  2572  2580    1  0.0000000000      2.1756800000       3
     2571  2570  2572  2573    1  0.0000000000      0.5020800000       3
     2571  2570  2572  2580    1  0.0000000000      0.5439200000       3
     2583  2570  2572  2573    1  0.0000000000      0.6508444444       3
     2583  2570  2572  2580    1  0.0000000000      0.6508444444       3
     2568  2570  2583  2567    1  180.0000000000    1.0041600000       2
     2568  2570  2583  2584    1  180.0000000000    1.0041600000       2
     2571  2570  2583  2567    1  0.0000000000      0.0000000000       1
     2571  2570  2583  2584    1  0.0000000000      0.0000000000       1
     2572  2570  2583  2567    1  180.0000000000    1.0041600000       2
     2572  2570  2583  2584    1  180.0000000000    1.0041600000       2
     2627  2632  2633  2634    1  180.0000000000    15.1670000000      2
     2627  2632  2633  2655    1  180.0000000000    15.1670000000      2
     2653  2632  2633  2634    1  180.0000000000    15.1670000000      2
     2653  2632  2633  2655    1  180.0000000000    15.1670000000      2
     2627  2632  2653  2652    1  180.0000000000    15.1670000000      2
     2627  2632  2653  2654    1  180.0000000000    15.1670000000      2
     2633  2632  2653  2652    1  180.0000000000    15.1670000000      2
     2633  2632  2653  2654    1  180.0000000000    15.1670000000      2
     2641  2643  2645  2646    1  0.0000000000      0.6508444444       3
     2641  2643  2645  2647    1  0.0000000000      0.6508444444       3
     2644  2643  2645  2646    1  0.0000000000      0.6508444444       3
     1779  2643  2645  2646    1  0.0000000000      0.6508444444       3
     1779  2643  2645  1778    1  0.0000000000      0.6508444444       3
     2641  2643  2645  1778    1  0.0000000000      0.6508444444       3
     2627  2656  2657  2658    1  180.0000000000    15.1670000000      2
     2627  2656  2657  2659    1  180.0000000000    15.1670000000      2
     2655  2656  2657  2658    1  180.0000000000    15.1670000000      2
     2655  2656  2657  2659    1  180.0000000000    15.1670000000      2
     2554  2558  2559  2560    1  0.0000000000      0.5439200000       3
     2554  2558  2559  2561    1  0.0000000000      0.5439200000       3
     2554  2558  2559  2562    1  0.0000000000      0.5439200000       3
     2563  2558  2559  2560    1  0.0000000000      0.6508444444       3
     2563  2558  2559  2561    1  0.0000000000      0.6508444444       3
     2563  2558  2559  2562    1  0.0000000000      0.6508444444       3
     2587  2558  2559  2560    1  0.0000000000      0.6508444444       3
     2587  2558  2559  2561    1  0.0000000000      0.6508444444       3
     2587  2558  2559  2562    1  0.0000000000      0.6508444444       3
     2554  2558  2563  2564    1  0.0000000000      0.0000000000       2
     2554  2558  2563  2584    1  180.0000000000    1.0041600000       2
     2559  2558  2563  2564    1  0.0000000000      0.0000000000       2
     2559  2558  2563  2584    1  180.0000000000    1.0041600000       2
     2587  2558  2563  2564    1  0.0000000000      0.0000000000       2
     2587  2558  2563  2584    1  180.0000000000    0.0000000000       2
     2554  2558  2587  2586    1  0.0000000000      0.0000000000       2
     2554  2558  2587  2588    1  180.0000000000    1.0041600000       2
     2559  2558  2587  2586    1  0.0000000000      0.0000000000       2
     2559  2558  2587  2588    1  180.0000000000    1.0041600000       2
     2563  2558  2587  2586    1  0.0000000000      0.0000000000       2
     2563  2558  2587  2588    1  180.0000000000    0.0000000000       2
     1739  1740  1742  1743    1  0.0000000000      0.6508444444       3
     1739  1740  1742  1744    1  0.0000000000      0.6508444444       3
     1739  1740  1742  1755    1  0.0000000000      0.6508444444       3
     1741  1740  1742  1743    1  0.0000000000      0.6508444444       3
     1741  1740  1742  1744    1  0.0000000000      0.6508444444       3
     1741  1740  1742  1755    1  0.0000000000      0.6508444444       3
     1750  1740  1742  1743    1  0.0000000000      0.6508444444       3
     1750  1740  1742  1744    1  0.0000000000      0.6508444444       3
     1750  1740  1742  1755    1  0.0000000000      0.6508444444       3
     1739  1740  1750  1751    1  0.0000000000      0.6508444444       3
     1739  1740  1750  1752    1  0.0000000000      0.6508444444       3
     1741  1740  1750  1751    1  0.0000000000      0.5020800000       3
     1741  1740  1750  1752    1  0.0000000000      0.5439200000       3
     1742  1740  1750  1751    1  0.0000000000      0.5439200000       3
     1742  1740  1750  1752    1  0.0000000000      2.1756800000       3
     2637  2639  2641  2642    1  0.0000000000      0.5439200000       3
     2637  2639  2641  2649    1  0.0000000000      2.1756800000       3
     2640  2639  2641  2642    1  0.0000000000      0.5020800000       3
     2640  2639  2641  2649    1  0.0000000000      0.5439200000       3
     2652  2639  2641  2642    1  0.0000000000      0.6508444444       3
     2652  2639  2641  2649    1  0.0000000000      0.6508444444       3
     2637  2639  2652  2636    1  180.0000000000    1.0041600000       2
     2637  2639  2652  2653    1  180.0000000000    1.0041600000       2
     2640  2639  2652  2636    1  0.0000000000      0.0000000000       1
     2640  2639  2652  2653    1  0.0000000000      0.0000000000       1
     2641  2639  2652  2636    1  180.0000000000    1.0041600000       2
     2641  2639  2652  2653    1  180.0000000000    1.0041600000       2
     1739  1755  1756  1735    1  180.0000000000    15.1670000000      2
     1739  1755  1756  1757    1  180.0000000000    15.1670000000      2
     1742  1755  1756  1735    1  180.0000000000    15.1670000000      2
     1742  1755  1756  1757    1  180.0000000000    15.1670000000      2
     1730  1735  1736  1737    1  180.0000000000    15.1670000000      2
     1730  1735  1736  1758    1  180.0000000000    15.1670000000      2
     1756  1735  1736  1737    1  180.0000000000    15.1670000000      2
     1756  1735  1736  1758    1  180.0000000000    15.1670000000      2
     1730  1735  1756  1755    1  180.0000000000    15.1670000000      2
     1730  1735  1756  1757    1  180.0000000000    15.1670000000      2
     1736  1735  1756  1755    1  180.0000000000    15.1670000000      2
     1736  1735  1756  1757    1  180.0000000000    15.1670000000      2
     2558  2563  2564  2565    1  180.0000000000    15.1670000000      2
     2558  2563  2564  2586    1  180.0000000000    15.1670000000      2
     2584  2563  2564  2565    1  180.0000000000    15.1670000000      2
     2584  2563  2564  2586    1  180.0000000000    15.1670000000      2
     2558  2563  2584  2583    1  180.0000000000    15.1670000000      2
     2558  2563  2584  2585    1  180.0000000000    15.1670000000      2
     2564  2563  2584  2583    1  180.0000000000    15.1670000000      2
     2564  2563  2584  2585    1  180.0000000000    15.1670000000      2
     1737  1739  1740  1741    1  0.0000000000      0.0000000000       1
     1737  1739  1740  1742    1  180.0000000000    1.0041600000       2
     1737  1739  1740  1750    1  180.0000000000    1.0041600000       2
     1755  1739  1740  1741    1  0.0000000000      0.0000000000       1
     1755  1739  1740  1742    1  180.0000000000    1.0041600000       2
     1755  1739  1740  1750    1  180.0000000000    1.0041600000       2
     1737  1739  1755  1742    1  180.0000000000    15.1670000000      2
     1737  1739  1755  1756    1  180.0000000000    15.1670000000      2
     1740  1739  1755  1742    1  180.0000000000    15.1670000000      2
     1740  1739  1755  1756    1  180.0000000000    15.1670000000      2
     2636  2637  2639  2640    1  0.0000000000      0.6508444444       3
     2636  2637  2639  2641    1  0.0000000000      0.6508444444       3
     2636  2637  2639  2652    1  0.0000000000      0.6508444444       3
     2638  2637  2639  2640    1  0.0000000000      0.6508444444       3
     2638  2637  2639  2641    1  0.0000000000      0.6508444444       3
     2638  2637  2639  2652    1  0.0000000000      0.6508444444       3
     2647  2637  2639  2640    1  0.0000000000      0.6508444444       3
     2647  2637  2639  2641    1  0.0000000000      0.6508444444       3
     2647  2637  2639  2652    1  0.0000000000      0.6508444444       3
     2636  2637  2647  2648    1  0.0000000000      0.6508444444       3
     2636  2637  2647  2649    1  0.0000000000      0.6508444444       3
     2638  2637  2647  2648    1  0.0000000000      0.5020800000       3
     2638  2637  2647  2649    1  0.0000000000      0.5439200000       3
     2639  2637  2647  2648    1  0.0000000000      0.5439200000       3
     2639  2637  2647  2649    1  0.0000000000      2.1756800000       3
     1736  1737  1739  1740    1  180.0000000000    15.1670000000      2
     1736  1737  1739  1755    1  180.0000000000    15.1670000000      2
     1738  1737  1739  1740    1  180.0000000000    15.1670000000      2
     1738  1737  1739  1755    1  180.0000000000    15.1670000000      2
     2634  2636  2637  2638    1  0.0000000000      0.0000000000       1
     2634  2636  2637  2639    1  180.0000000000    1.0041600000       2
     2634  2636  2637  2647    1  180.0000000000    1.0041600000       2
     2652  2636  2637  2638    1  0.0000000000      0.0000000000       1
     2652  2636  2637  2639    1  180.0000000000    1.0041600000       2
     2652  2636  2637  2647    1  180.0000000000    1.0041600000       2
     2634  2636  2652  2639    1  180.0000000000    15.1670000000      2
     2634  2636  2652  2653    1  180.0000000000    15.1670000000      2
     2637  2636  2652  2639    1  180.0000000000    15.1670000000      2
     2637  2636  2652  2653    1  180.0000000000    15.1670000000      2
     1740  1750  1748  1746    1  0.0000000000      2.1756800000       3
     1751  1750  1748  1746    1  0.0000000000      0.5439200000       3
     1752  1750  1748  1746    1  0.0000000000      2.1756800000       3
     1740  1750  1748  1749    1  0.0000000000      0.5439200000       3
     1751  1750  1748  1749    1  0.0000000000      0.5020800000       3
     1752  1750  1748  1749    1  0.0000000000      0.5439200000       3
     1748  1750  1740  1739    1  0.0000000000      0.6508444444       3
     1748  1750  1740  1741    1  0.0000000000      0.5439200000       3
     1748  1750  1740  1742    1  0.0000000000      2.1756800000       3
     1740  1750  1752  1744    1  0.0000000000      0.6508444444       3
     1740  1750  1752  1753    1  0.0000000000      0.6508444444       3
     1740  1750  1752  1754    1  0.0000000000      0.6508444444       3
     1748  1750  1752  1753    1  0.0000000000      0.6508444444       3
     1748  1750  1752  1754    1  0.0000000000      0.6508444444       3
     1751  1750  1752  1744    1  0.0000000000      0.5439200000       3
     1751  1750  1752  1753    1  0.0000000000      0.5020800000       3
     1751  1750  1752  1754    1  0.0000000000      0.5020800000       3
     1740  1750  1748  2607    1  0.0000000000      0.6508444444       3
     1751  1750  1748  2607    1  0.0000000000      0.6508444444       3
     1752  1750  1748  2607    1  0.0000000000      0.6508444444       3
     2567  2583  2584  2563    1  180.0000000000    15.1670000000      2
     2567  2583  2584  2585    1  180.0000000000    15.1670000000      2
     2570  2583  2584  2563    1  180.0000000000    15.1670000000      2
     2570  2583  2584  2585    1  180.0000000000    15.1670000000      2
     2623  2627  2628  2629    1  0.0000000000      0.5439200000       3
     2623  2627  2628  2630    1  0.0000000000      0.5439200000       3
     2623  2627  2628  2631    1  0.0000000000      0.5439200000       3
     2632  2627  2628  2629    1  0.0000000000      0.6508444444       3
     2632  2627  2628  2630    1  0.0000000000      0.6508444444       3
     2632  2627  2628  2631    1  0.0000000000      0.6508444444       3
     2656  2627  2628  2629    1  0.0000000000      0.6508444444       3
     2656  2627  2628  2630    1  0.0000000000      0.6508444444       3
     2656  2627  2628  2631    1  0.0000000000      0.6508444444       3
     2623  2627  2632  2633    1  0.0000000000      0.0000000000       2
     2623  2627  2632  2653    1  180.0000000000    1.0041600000       2
     2628  2627  2632  2633    1  0.0000000000      0.0000000000       2
     2628  2627  2632  2653    1  180.0000000000    1.0041600000       2
     2656  2627  2632  2633    1  0.0000000000      0.0000000000       2
     2656  2627  2632  2653    1  180.0000000000    0.0000000000       2
     2623  2627  2656  2655    1  0.0000000000      0.0000000000       2
     2623  2627  2656  2657    1  180.0000000000    1.0041600000       2
     2628  2627  2656  2655    1  0.0000000000      0.0000000000       2
     2628  2627  2656  2657    1  180.0000000000    1.0041600000       2
     2632  2627  2656  2655    1  0.0000000000      0.0000000000       2
     2632  2627  2656  2657    1  180.0000000000    0.0000000000       2
     1778  1779  1780  1771    1  180.0000000000    15.1670000000      2
     2643  1779  1778  2645    1  180.0000000000    15.1670000000      2
     1778  1779  2643  2641    1  180.0000000000    1.0041600000       2
     1780  1779  2643  2641    1  180.0000000000    1.0041600000       2
     1778  1779  2643  2644    1  0.0000000000      0.0000000000       1
     1780  1779  2643  2644    1  0.0000000000      0.0000000000       1
     1778  1779  2643  2645    1  180.0000000000    1.0041600000       2
     1780  1779  2643  2645    1  180.0000000000    1.0041600000       2
     1780  1779  1778  2645    1  180.0000000000    15.1670000000      2
     2633  2634  2636  2637    1  180.0000000000    15.1670000000      2
     2633  2634  2636  2652    1  180.0000000000    15.1670000000      2
     2635  2634  2636  2637    1  180.0000000000    15.1670000000      2
     2635  2634  2636  2652    1  180.0000000000    15.1670000000      2
     1735  1736  1737  1738    1  180.0000000000    15.1670000000      2
     1735  1736  1737  1739    1  180.0000000000    15.1670000000      2
     1758  1736  1737  1738    1  180.0000000000    15.1670000000      2
     1758  1736  1737  1739    1  180.0000000000    15.1670000000      2
     1735  1736  1758  1759    1  180.0000000000    4.1840000000       2
     1735  1736  1758  1793    1  180.0000000000    4.1840000000       2
     1737  1736  1758  1759    1  180.0000000000    4.1840000000       2
     1737  1736  1758  1793    1  180.0000000000    4.1840000000       2
     2643  2641  2639  2637    1  0.0000000000      2.1756800000       3
     2643  2641  2639  2640    1  0.0000000000      0.5439200000       3
     2643  2641  2639  2652    1  0.0000000000      0.6508444444       3
     2639  2641  2643  2644    1  0.0000000000      0.5439200000       3
     2639  2641  2643  2645    1  0.0000000000      2.1756800000       3
     2642  2641  2643  2644    1  0.0000000000      0.5020800000       3
     2642  2641  2643  2645    1  0.0000000000      0.5439200000       3
     2649  2641  2643  2644    1  0.0000000000      0.5439200000       3
     2649  2641  2643  2645    1  0.0000000000      2.1756800000       3
     2639  2641  2649  2647    1  0.0000000000      0.6508444444       3
     2639  2641  2649  2650    1  0.0000000000      0.6508444444       3
     2639  2641  2649  2651    1  0.0000000000      0.6508444444       3
     2642  2641  2649  2647    1  0.0000000000      0.5439200000       3
     2642  2641  2649  2650    1  0.0000000000      0.5020800000       3
     2642  2641  2649  2651    1  0.0000000000      0.5020800000       3
     2643  2641  2649  2650    1  0.0000000000      0.6508444444       3
     2643  2641  2649  2651    1  0.0000000000      0.6508444444       3
     2639  2641  2643  1779    1  0.0000000000      0.6508444444       3
     2642  2641  2643  1779    1  0.0000000000      0.6508444444       3
     2649  2641  2643  1779    1  0.0000000000      0.6508444444       3
     2565  2567  2568  2569    1  0.0000000000      0.0000000000       1
     2565  2567  2568  2570    1  180.0000000000    1.0041600000       2
     2565  2567  2568  2578    1  180.0000000000    1.0041600000       2
     2583  2567  2568  2569    1  0.0000000000      0.0000000000       1
     2583  2567  2568  2570    1  180.0000000000    1.0041600000       2
     2583  2567  2568  2578    1  180.0000000000    1.0041600000       2
     2565  2567  2583  2570    1  180.0000000000    15.1670000000      2
     2565  2567  2583  2584    1  180.0000000000    15.1670000000      2
     2568  2567  2583  2570    1  180.0000000000    15.1670000000      2
     2568  2567  2583  2584    1  180.0000000000    15.1670000000      2
     2574  2572  2570  2568    1  0.0000000000      2.1756800000       3
     2574  2572  2570  2571    1  0.0000000000      0.5439200000       3
     2574  2572  2570  2583    1  0.0000000000      0.6508444444       3
     2570  2572  2574  2575    1  0.0000000000      0.5439200000       3
     2570  2572  2574  2576    1  0.0000000000      2.1756800000       3
     2573  2572  2574  2575    1  0.0000000000      0.5020800000       3
     2573  2572  2574  2576    1  0.0000000000      0.5439200000       3
     2580  2572  2574  2575    1  0.0000000000      0.5439200000       3
     2580  2572  2574  2576    1  0.0000000000      2.1756800000       3
     2570  2572  2580  2578    1  0.0000000000      0.6508444444       3
     2570  2572  2580  2581    1  0.0000000000      0.6508444444       3
     2570  2572  2580  2582    1  0.0000000000      0.6508444444       3
     2573  2572  2580  2578    1  0.0000000000      0.5439200000       3
     2573  2572  2580  2581    1  0.0000000000      0.5020800000       3
     2573  2572  2580  2582    1  0.0000000000      0.5020800000       3
     2574  2572  2580  2581    1  0.0000000000      0.6508444444       3
     2574  2572  2580  2582    1  0.0000000000      0.6508444444       3
     2570  2572  2574  468     1  0.0000000000      0.6508444444       3
     2573  2572  2574  468     1  0.0000000000      0.6508444444       3
     2580  2572  2574  468     1  0.0000000000      0.6508444444       3
     5679  5677  5675  5673    1  0.0000000000      2.1756800000       3
     5679  5677  5675  5676    1  0.0000000000      0.5439200000       3
     5679  5677  5675  5688    1  0.0000000000      0.6508444444       3
     5675  5677  5679  5680    1  0.0000000000      0.5439200000       3
     5675  5677  5679  5681    1  0.0000000000      2.1756800000       3
     5678  5677  5679  5680    1  0.0000000000      0.5020800000       3
     5678  5677  5679  5681    1  0.0000000000      0.5439200000       3
     5685  5677  5679  5680    1  0.0000000000      0.5439200000       3
     5685  5677  5679  5681    1  0.0000000000      2.1756800000       3
     5675  5677  5685  5683    1  0.0000000000      0.6508444444       3
     5675  5677  5685  5686    1  0.0000000000      0.6508444444       3
     5675  5677  5685  5687    1  0.0000000000      0.6508444444       3
     5678  5677  5685  5683    1  0.0000000000      0.5439200000       3
     5678  5677  5685  5686    1  0.0000000000      0.5020800000       3
     5678  5677  5685  5687    1  0.0000000000      0.5020800000       3
     5679  5677  5685  5686    1  0.0000000000      0.6508444444       3
     5679  5677  5685  5687    1  0.0000000000      0.6508444444       3
     5675  5677  5679  1916    1  0.0000000000      0.6508444444       3
     5678  5677  5679  1916    1  0.0000000000      0.6508444444       3
     5685  5677  5679  1916    1  0.0000000000      0.6508444444       3
     1750  1752  1744  1746    1  0.0000000000      0.6508444444       3
     1744  1752  1750  1748    1  0.0000000000      0.6508444444       3
     635   636   638   639     1  0.0000000000      0.6508444444       3
     635   636   638   640     1  0.0000000000      0.6508444444       3
     635   636   638   651     1  0.0000000000      0.6508444444       3
     637   636   638   639     1  0.0000000000      0.6508444444       3
     637   636   638   640     1  0.0000000000      0.6508444444       3
     637   636   638   651     1  0.0000000000      0.6508444444       3
     646   636   638   639     1  0.0000000000      0.6508444444       3
     646   636   638   640     1  0.0000000000      0.6508444444       3
     646   636   638   651     1  0.0000000000      0.6508444444       3
     635   636   646   647     1  0.0000000000      0.6508444444       3
     635   636   646   648     1  0.0000000000      0.6508444444       3
     637   636   646   647     1  0.0000000000      0.5020800000       3
     637   636   646   648     1  0.0000000000      0.5439200000       3
     638   636   646   647     1  0.0000000000      0.5439200000       3
     638   636   646   648     1  0.0000000000      2.1756800000       3
     646   644   642   643     1  0.0000000000      0.6508444444       3
     2399  644   642   643     1  0.0000000000      0.6508444444       3
     2399  644   642   2400    1  0.0000000000      0.6508444444       3
     646   644   642   2400    1  0.0000000000      0.6508444444       3
     644   646   636   635     1  0.0000000000      0.6508444444       3
     644   646   636   637     1  0.0000000000      0.5439200000       3
     644   646   636   638     1  0.0000000000      2.1756800000       3
     636   646   644   642     1  0.0000000000      2.1756800000       3
     647   646   644   642     1  0.0000000000      0.5439200000       3
     648   646   644   642     1  0.0000000000      2.1756800000       3
     636   646   644   645     1  0.0000000000      0.5439200000       3
     647   646   644   645     1  0.0000000000      0.5020800000       3
     648   646   644   645     1  0.0000000000      0.5439200000       3
     636   646   648   640     1  0.0000000000      0.6508444444       3
     636   646   648   649     1  0.0000000000      0.6508444444       3
     636   646   648   650     1  0.0000000000      0.6508444444       3
     644   646   648   649     1  0.0000000000      0.6508444444       3
     644   646   648   650     1  0.0000000000      0.6508444444       3
     647   646   648   640     1  0.0000000000      0.5439200000       3
     647   646   648   649     1  0.0000000000      0.5020800000       3
     647   646   648   650     1  0.0000000000      0.5020800000       3
     636   646   644   2399    1  0.0000000000      0.6508444444       3
     647   646   644   2399    1  0.0000000000      0.6508444444       3
     648   646   644   2399    1  0.0000000000      0.6508444444       3
     2702  2703  2705  2706    1  180.0000000000    15.1670000000      2
     2702  2703  2705  2721    1  180.0000000000    15.1670000000      2
     2704  2703  2705  2706    1  180.0000000000    15.1670000000      2
     2704  2703  2705  2721    1  180.0000000000    15.1670000000      2
     2703  2705  2706  2707    1  0.0000000000      0.0000000000       1
     2703  2705  2706  2708    1  180.0000000000    1.0041600000       2
     2703  2705  2706  2716    1  180.0000000000    1.0041600000       2
     2721  2705  2706  2707    1  0.0000000000      0.0000000000       1
     2721  2705  2706  2708    1  180.0000000000    1.0041600000       2
     2721  2705  2706  2716    1  180.0000000000    1.0041600000       2
     2703  2705  2721  2708    1  180.0000000000    15.1670000000      2
     2703  2705  2721  2722    1  180.0000000000    15.1670000000      2
     2706  2705  2721  2708    1  180.0000000000    15.1670000000      2
     2706  2705  2721  2722    1  180.0000000000    15.1670000000      2
     2705  2706  2708  2709    1  0.0000000000      0.6508444444       3
     2705  2706  2708  2710    1  0.0000000000      0.6508444444       3
     2705  2706  2708  2721    1  0.0000000000      0.6508444444       3
     2707  2706  2708  2709    1  0.0000000000      0.6508444444       3
     2707  2706  2708  2710    1  0.0000000000      0.6508444444       3
     2707  2706  2708  2721    1  0.0000000000      0.6508444444       3
     2716  2706  2708  2709    1  0.0000000000      0.6508444444       3
     2716  2706  2708  2710    1  0.0000000000      0.6508444444       3
     2716  2706  2708  2721    1  0.0000000000      0.6508444444       3
     2705  2706  2716  2717    1  0.0000000000      0.6508444444       3
     2705  2706  2716  2718    1  0.0000000000      0.6508444444       3
     2707  2706  2716  2717    1  0.0000000000      0.5020800000       3
     2707  2706  2716  2718    1  0.0000000000      0.5439200000       3
     2708  2706  2716  2717    1  0.0000000000      0.5439200000       3
     2708  2706  2716  2718    1  0.0000000000      2.1756800000       3
     2706  2708  2710  2711    1  0.0000000000      0.5439200000       3
     2706  2708  2710  2718    1  0.0000000000      2.1756800000       3
     2709  2708  2710  2711    1  0.0000000000      0.5020800000       3
     2709  2708  2710  2718    1  0.0000000000      0.5439200000       3
     2721  2708  2710  2711    1  0.0000000000      0.6508444444       3
     2721  2708  2710  2718    1  0.0000000000      0.6508444444       3
     2706  2708  2721  2705    1  180.0000000000    1.0041600000       2
     2706  2708  2721  2722    1  180.0000000000    1.0041600000       2
     2709  2708  2721  2705    1  0.0000000000      0.0000000000       1
     2709  2708  2721  2722    1  0.0000000000      0.0000000000       1
     2710  2708  2721  2705    1  180.0000000000    1.0041600000       2
     2710  2708  2721  2722    1  180.0000000000    1.0041600000       2
     2705  2721  2722  2701    1  180.0000000000    15.1670000000      2
     2705  2721  2722  2723    1  180.0000000000    15.1670000000      2
     2708  2721  2722  2701    1  180.0000000000    15.1670000000      2
     2708  2721  2722  2723    1  180.0000000000    15.1670000000      2
     2701  2702  2703  2704    1  180.0000000000    15.1670000000      2
     2701  2702  2703  2705    1  180.0000000000    15.1670000000      2
     2724  2702  2703  2704    1  180.0000000000    15.1670000000      2
     2724  2702  2703  2705    1  180.0000000000    15.1670000000      2
     2701  2702  2724  2725    1  180.0000000000    4.1840000000       2
     2701  2702  2724  2759    1  180.0000000000    4.1840000000       2
     2703  2702  2724  2725    1  180.0000000000    4.1840000000       2
     2703  2702  2724  2759    1  180.0000000000    4.1840000000       2
     2712  2710  2708  2706    1  0.0000000000      2.1756800000       3
     2712  2710  2708  2709    1  0.0000000000      0.5439200000       3
     2712  2710  2708  2721    1  0.0000000000      0.6508444444       3
     2708  2710  2712  2713    1  0.0000000000      0.5439200000       3
     2708  2710  2712  2714    1  0.0000000000      2.1756800000       3
     2711  2710  2712  2713    1  0.0000000000      0.5020800000       3
     2711  2710  2712  2714    1  0.0000000000      0.5439200000       3
     2718  2710  2712  2713    1  0.0000000000      0.5439200000       3
     2718  2710  2712  2714    1  0.0000000000      2.1756800000       3
     2708  2710  2718  2716    1  0.0000000000      0.6508444444       3
     2708  2710  2718  2719    1  0.0000000000      0.6508444444       3
     2708  2710  2718  2720    1  0.0000000000      0.6508444444       3
     2711  2710  2718  2716    1  0.0000000000      0.5439200000       3
     2711  2710  2718  2719    1  0.0000000000      0.5020800000       3
     2711  2710  2718  2720    1  0.0000000000      0.5020800000       3
     2712  2710  2718  2719    1  0.0000000000      0.6508444444       3
     2712  2710  2718  2720    1  0.0000000000      0.6508444444       3
     2708  2710  2712  675     1  0.0000000000      0.6508444444       3
     2711  2710  2712  675     1  0.0000000000      0.6508444444       3
     2718  2710  2712  675     1  0.0000000000      0.6508444444       3
     2348  2347  2351  2352    1  0.0000000000      0.5439200000       3
     2348  2347  2351  2356    1  0.0000000000      0.6508444444       3
     2348  2347  2351  2380    1  0.0000000000      0.6508444444       3
     2349  2347  2351  2352    1  0.0000000000      0.5439200000       3
     2349  2347  2351  2356    1  0.0000000000      0.6508444444       3
     2349  2347  2351  2380    1  0.0000000000      0.6508444444       3
     2350  2347  2351  2352    1  0.0000000000      0.5439200000       3
     2350  2347  2351  2356    1  0.0000000000      0.6508444444       3
     2350  2347  2351  2380    1  0.0000000000      0.6508444444       3
     2710  2712  2714  2715    1  0.0000000000      0.6508444444       3
     2710  2712  2714  2716    1  0.0000000000      0.6508444444       3
     2713  2712  2714  2715    1  0.0000000000      0.6508444444       3
     675   2712  2714  2715    1  0.0000000000      0.6508444444       3
     675   2712  2714  674     1  0.0000000000      0.6508444444       3
     2710  2712  2714  674     1  0.0000000000      0.6508444444       3
     2696  2701  2702  2703    1  180.0000000000    15.1670000000      2
     2696  2701  2702  2724    1  180.0000000000    15.1670000000      2
     2722  2701  2702  2703    1  180.0000000000    15.1670000000      2
     2722  2701  2702  2724    1  180.0000000000    15.1670000000      2
     2696  2701  2722  2721    1  180.0000000000    15.1670000000      2
     2696  2701  2722  2723    1  180.0000000000    15.1670000000      2
     2702  2701  2722  2721    1  180.0000000000    15.1670000000      2
     2702  2701  2722  2723    1  180.0000000000    15.1670000000      2
     2714  2716  2706  2705    1  0.0000000000      0.6508444444       3
     2714  2716  2706  2707    1  0.0000000000      0.5439200000       3
     2714  2716  2706  2708    1  0.0000000000      2.1756800000       3
     2706  2716  2714  2712    1  0.0000000000      2.1756800000       3
     2717  2716  2714  2712    1  0.0000000000      0.5439200000       3
     2718  2716  2714  2712    1  0.0000000000      2.1756800000       3
     2706  2716  2714  2715    1  0.0000000000      0.5439200000       3
     2717  2716  2714  2715    1  0.0000000000      0.5020800000       3
     2718  2716  2714  2715    1  0.0000000000      0.5439200000       3
     2706  2716  2718  2710    1  0.0000000000      0.6508444444       3
     2706  2716  2718  2719    1  0.0000000000      0.6508444444       3
     2706  2716  2718  2720    1  0.0000000000      0.6508444444       3
     2714  2716  2718  2719    1  0.0000000000      0.6508444444       3
     2714  2716  2718  2720    1  0.0000000000      0.6508444444       3
     2717  2716  2718  2710    1  0.0000000000      0.5439200000       3
     2717  2716  2718  2719    1  0.0000000000      0.5020800000       3
     2717  2716  2718  2720    1  0.0000000000      0.5020800000       3
     2706  2716  2714  674     1  0.0000000000      0.6508444444       3
     2717  2716  2714  674     1  0.0000000000      0.6508444444       3
     2718  2716  2714  674     1  0.0000000000      0.6508444444       3
     636   638   640   641     1  0.0000000000      0.5439200000       3
     636   638   640   648     1  0.0000000000      2.1756800000       3
     639   638   640   641     1  0.0000000000      0.5020800000       3
     639   638   640   648     1  0.0000000000      0.5439200000       3
     651   638   640   641     1  0.0000000000      0.6508444444       3
     651   638   640   648     1  0.0000000000      0.6508444444       3
     636   638   651   635     1  180.0000000000    1.0041600000       2
     636   638   651   652     1  180.0000000000    1.0041600000       2
     639   638   651   635     1  0.0000000000      0.0000000000       1
     639   638   651   652     1  0.0000000000      0.0000000000       1
     640   638   651   635     1  180.0000000000    1.0041600000       2
     640   638   651   652     1  180.0000000000    1.0041600000       2
     640   642   644   645     1  0.0000000000      0.6508444444       3
     640   642   644   646     1  0.0000000000      0.6508444444       3
     643   642   644   645     1  0.0000000000      0.6508444444       3
     640   642   644   2399    1  0.0000000000      0.6508444444       3
     2400  642   644   645     1  0.0000000000      0.6508444444       3
     2716  2714  2712  2713    1  0.0000000000      0.6508444444       3
     2716  2714  2712  675     1  0.0000000000      0.6508444444       3
     674   2714  2712  2713    1  0.0000000000      0.6508444444       3
     633   635   636   637     1  0.0000000000      0.0000000000       1
     633   635   636   638     1  180.0000000000    1.0041600000       2
     633   635   636   646     1  180.0000000000    1.0041600000       2
     651   635   636   637     1  0.0000000000      0.0000000000       1
     651   635   636   638     1  180.0000000000    1.0041600000       2
     651   635   636   646     1  180.0000000000    1.0041600000       2
     633   635   651   638     1  180.0000000000    15.1670000000      2
     633   635   651   652     1  180.0000000000    15.1670000000      2
     636   635   651   638     1  180.0000000000    15.1670000000      2
     636   635   651   652     1  180.0000000000    15.1670000000      2
     646   648   640   642     1  0.0000000000      0.6508444444       3
     640   648   646   644     1  0.0000000000      0.6508444444       3
     642   640   638   636     1  0.0000000000      2.1756800000       3
     642   640   638   639     1  0.0000000000      0.5439200000       3
     642   640   638   651     1  0.0000000000      0.6508444444       3
     638   640   642   643     1  0.0000000000      0.5439200000       3
     638   640   642   644     1  0.0000000000      2.1756800000       3
     641   640   642   643     1  0.0000000000      0.5020800000       3
     641   640   642   644     1  0.0000000000      0.5439200000       3
     648   640   642   643     1  0.0000000000      0.5439200000       3
     648   640   642   644     1  0.0000000000      2.1756800000       3
     638   640   648   646     1  0.0000000000      0.6508444444       3
     638   640   648   649     1  0.0000000000      0.6508444444       3
     638   640   648   650     1  0.0000000000      0.6508444444       3
     641   640   648   646     1  0.0000000000      0.5439200000       3
     641   640   648   649     1  0.0000000000      0.5020800000       3
     641   640   648   650     1  0.0000000000      0.5020800000       3
     642   640   648   649     1  0.0000000000      0.6508444444       3
     642   640   648   650     1  0.0000000000      0.6508444444       3
     638   640   642   2400    1  0.0000000000      0.6508444444       3
     641   640   642   2400    1  0.0000000000      0.6508444444       3
     648   640   642   2400    1  0.0000000000      0.6508444444       3
     2692  2696  2697  2698    1  0.0000000000      0.5439200000       3
     2692  2696  2697  2699    1  0.0000000000      0.5439200000       3
     2692  2696  2697  2700    1  0.0000000000      0.5439200000       3
     2701  2696  2697  2698    1  0.0000000000      0.6508444444       3
     2701  2696  2697  2699    1  0.0000000000      0.6508444444       3
     2701  2696  2697  2700    1  0.0000000000      0.6508444444       3
     2725  2696  2697  2698    1  0.0000000000      0.6508444444       3
     2725  2696  2697  2699    1  0.0000000000      0.6508444444       3
     2725  2696  2697  2700    1  0.0000000000      0.6508444444       3
     2692  2696  2701  2702    1  0.0000000000      0.0000000000       2
     2692  2696  2701  2722    1  180.0000000000    1.0041600000       2
     2697  2696  2701  2702    1  0.0000000000      0.0000000000       2
     2697  2696  2701  2722    1  180.0000000000    1.0041600000       2
     2725  2696  2701  2702    1  0.0000000000      0.0000000000       2
     2725  2696  2701  2722    1  180.0000000000    0.0000000000       2
     2692  2696  2725  2724    1  0.0000000000      0.0000000000       2
     2692  2696  2725  2726    1  180.0000000000    1.0041600000       2
     2697  2696  2725  2724    1  0.0000000000      0.0000000000       2
     2697  2696  2725  2726    1  180.0000000000    1.0041600000       2
     2701  2696  2725  2724    1  0.0000000000      0.0000000000       2
     2701  2696  2725  2726    1  180.0000000000    0.0000000000       2
     2716  2718  2710  2712    1  0.0000000000      0.6508444444       3
     2710  2718  2716  2714    1  0.0000000000      0.6508444444       3
     3904  3906  3908  3909    1  0.0000000000      0.5439200000       3
     3904  3906  3908  3910    1  0.0000000000      0.6508444444       3
     3904  3906  3908  3924    1  0.0000000000      2.1756800000       3
     3907  3906  3908  3909    1  0.0000000000      0.5020800000       3
     3907  3906  3908  3910    1  0.0000000000      0.6508444444       3
     3907  3906  3908  3924    1  0.0000000000      0.5439200000       3
     3928  3906  3908  3909    1  0.0000000000      0.5439200000       3
     3928  3906  3908  3910    1  0.0000000000      0.6508444444       3
     3928  3906  3908  3924    1  0.0000000000      2.1756800000       3
     3904  3906  3928  3926    1  0.0000000000      0.6508444444       3
     3904  3906  3928  3929    1  0.0000000000      0.6508444444       3
     3904  3906  3928  3930    1  0.0000000000      0.6508444444       3
     3907  3906  3928  3926    1  0.0000000000      0.5439200000       3
     3907  3906  3928  3929    1  0.0000000000      0.5020800000       3
     3907  3906  3928  3930    1  0.0000000000      0.5020800000       3
     3908  3906  3928  3926    1  0.0000000000      0.6508444444       3
     3908  3906  3928  3929    1  0.0000000000      0.6508444444       3
     3908  3906  3928  3930    1  0.0000000000      0.6508444444       3
     669   674   675   676     1  180.0000000000    15.1670000000      2
     669   674   675   2712    1  180.0000000000    15.1670000000      2
     669   674   2714  2712    1  180.0000000000    1.0041600000       2
     675   674   2714  2712    1  180.0000000000    1.0041600000       2
     669   674   2714  2715    1  0.0000000000      0.0000000000       1
     675   674   2714  2715    1  0.0000000000      0.0000000000       1
     669   674   2714  2716    1  180.0000000000    1.0041600000       2
     675   674   2714  2716    1  180.0000000000    1.0041600000       2
     674   675   676   667     1  180.0000000000    15.1670000000      2
     2712  675   674   2714    1  180.0000000000    15.1670000000      2
     674   675   2712  2710    1  180.0000000000    1.0041600000       2
     676   675   2712  2710    1  180.0000000000    1.0041600000       2
     674   675   2712  2713    1  0.0000000000      0.0000000000       1
     676   675   2712  2713    1  0.0000000000      0.0000000000       1
     674   675   2712  2714    1  180.0000000000    1.0041600000       2
     676   675   2712  2714    1  180.0000000000    1.0041600000       2
     676   675   674   2714    1  180.0000000000    15.1670000000      2
     635   651   652   631     1  180.0000000000    15.1670000000      2
     635   651   652   653     1  180.0000000000    15.1670000000      2
     638   651   652   631     1  180.0000000000    15.1670000000      2
     638   651   652   653     1  180.0000000000    15.1670000000      2
     3902  3904  3906  3907    1  0.0000000000      0.5439200000       3
     3902  3904  3906  3908    1  0.0000000000      2.1756800000       3
     3902  3904  3906  3928    1  0.0000000000      2.1756800000       3
     3905  3904  3906  3907    1  0.0000000000      0.5020800000       3
     3905  3904  3906  3908    1  0.0000000000      0.5439200000       3
     3905  3904  3906  3928    1  0.0000000000      0.5439200000       3
     3931  3904  3906  3907    1  0.0000000000      0.6508444444       3
     3931  3904  3906  3908    1  0.0000000000      0.6508444444       3
     3931  3904  3906  3928    1  0.0000000000      0.6508444444       3
     3902  3904  3931  3901    1  180.0000000000    1.0041600000       2
     3902  3904  3931  3932    1  180.0000000000    1.0041600000       2
     3905  3904  3931  3901    1  0.0000000000      0.0000000000       1
     3905  3904  3931  3932    1  0.0000000000      0.0000000000       1
     3906  3904  3931  3901    1  180.0000000000    1.0041600000       2
     3906  3904  3931  3932    1  180.0000000000    1.0041600000       2
     632   633   635   636     1  180.0000000000    15.1670000000      2
     632   633   635   651     1  180.0000000000    15.1670000000      2
     634   633   635   636     1  180.0000000000    15.1670000000      2
     634   633   635   651     1  180.0000000000    15.1670000000      2
     3901  3902  3904  3905    1  0.0000000000      0.6508444444       3
     3901  3902  3904  3906    1  0.0000000000      0.6508444444       3
     3901  3902  3904  3931    1  0.0000000000      0.6508444444       3
     3903  3902  3904  3905    1  0.0000000000      0.6508444444       3
     3903  3902  3904  3906    1  0.0000000000      0.6508444444       3
     3903  3902  3904  3931    1  0.0000000000      0.6508444444       3
     3926  3902  3904  3905    1  0.0000000000      0.6508444444       3
     3926  3902  3904  3906    1  0.0000000000      0.6508444444       3
     3926  3902  3904  3931    1  0.0000000000      0.6508444444       3
     3901  3902  3926  3924    1  0.0000000000      0.6508444444       3
     3901  3902  3926  3927    1  0.0000000000      0.6508444444       3
     3901  3902  3926  3928    1  0.0000000000      0.6508444444       3
     3903  3902  3926  3924    1  0.0000000000      0.5439200000       3
     3903  3902  3926  3927    1  0.0000000000      0.5020800000       3
     3903  3902  3926  3928    1  0.0000000000      0.5439200000       3
     3904  3902  3926  3924    1  0.0000000000      2.1756800000       3
     3904  3902  3926  3927    1  0.0000000000      0.5439200000       3
     3904  3902  3926  3928    1  0.0000000000      2.1756800000       3
     2394  2399  2400  2401    1  180.0000000000    15.1670000000      2
     644   2399  2400  642     1  180.0000000000    15.1670000000      2
     2394  2399  644   642     1  180.0000000000    1.0041600000       2
     2400  2399  644   642     1  180.0000000000    1.0041600000       2
     2394  2399  644   645     1  0.0000000000      0.0000000000       1
     2400  2399  644   645     1  0.0000000000      0.0000000000       1
     2394  2399  644   646     1  180.0000000000    1.0041600000       2
     2400  2399  644   646     1  180.0000000000    1.0041600000       2
     2394  2399  2400  642     1  180.0000000000    15.1670000000      2
     6290  6312  6313  6284    1  180.0000000000    15.1670000000      2
     6290  6312  6313  6314    1  180.0000000000    15.1670000000      2
     6347  6312  6313  6284    1  180.0000000000    15.1670000000      2
     6347  6312  6313  6314    1  180.0000000000    15.1670000000      2
     6290  6312  6347  6346    1  180.0000000000    15.1670000000      2
     6290  6312  6347  6348    1  180.0000000000    15.1670000000      2
     6313  6312  6347  6346    1  180.0000000000    15.1670000000      2
     6313  6312  6347  6348    1  180.0000000000    15.1670000000      2
     2396  2395  2394  2399    1  0.0000000000      0.0000000000       2
     2397  2395  2394  2399    1  0.0000000000      0.0000000000       2
     2398  2395  2394  2399    1  0.0000000000      0.0000000000       2
     6300  6298  6296  6294    1  0.0000000000      2.1756800000       3
     6300  6298  6296  6297    1  0.0000000000      0.5439200000       3
     6300  6298  6296  6309    1  0.0000000000      0.6508444444       3
     6296  6298  6300  6301    1  0.0000000000      0.5439200000       3
     6296  6298  6300  6302    1  0.0000000000      2.1756800000       3
     6299  6298  6300  6301    1  0.0000000000      0.5020800000       3
     6299  6298  6300  6302    1  0.0000000000      0.5439200000       3
     6306  6298  6300  6301    1  0.0000000000      0.5439200000       3
     6306  6298  6300  6302    1  0.0000000000      2.1756800000       3
     6296  6298  6306  6304    1  0.0000000000      0.6508444444       3
     6296  6298  6306  6307    1  0.0000000000      0.6508444444       3
     6296  6298  6306  6308    1  0.0000000000      0.6508444444       3
     6299  6298  6306  6304    1  0.0000000000      0.5439200000       3
     6299  6298  6306  6307    1  0.0000000000      0.5020800000       3
     6299  6298  6306  6308    1  0.0000000000      0.5020800000       3
     6300  6298  6306  6307    1  0.0000000000      0.6508444444       3
     6300  6298  6306  6308    1  0.0000000000      0.6508444444       3
     6296  6298  6300  3849    1  0.0000000000      0.6508444444       3
     6299  6298  6300  3849    1  0.0000000000      0.6508444444       3
     6306  6298  6300  3849    1  0.0000000000      0.6508444444       3
     2662  2664  2666  2667    1  0.0000000000      0.5439200000       3
     2662  2664  2666  2668    1  0.0000000000      0.6508444444       3
     2662  2664  2666  2682    1  0.0000000000      2.1756800000       3
     2665  2664  2666  2667    1  0.0000000000      0.5020800000       3
     2665  2664  2666  2668    1  0.0000000000      0.6508444444       3
     2665  2664  2666  2682    1  0.0000000000      0.5439200000       3
     2686  2664  2666  2667    1  0.0000000000      0.5439200000       3
     2686  2664  2666  2668    1  0.0000000000      0.6508444444       3
     2686  2664  2666  2682    1  0.0000000000      2.1756800000       3
     2662  2664  2686  2684    1  0.0000000000      0.6508444444       3
     2662  2664  2686  2687    1  0.0000000000      0.6508444444       3
     2662  2664  2686  2688    1  0.0000000000      0.6508444444       3
     2665  2664  2686  2684    1  0.0000000000      0.5439200000       3
     2665  2664  2686  2687    1  0.0000000000      0.5020800000       3
     2665  2664  2686  2688    1  0.0000000000      0.5020800000       3
     2666  2664  2686  2684    1  0.0000000000      0.6508444444       3
     2666  2664  2686  2687    1  0.0000000000      0.6508444444       3
     2666  2664  2686  2688    1  0.0000000000      0.6508444444       3
     6289  6290  6291  6292    1  180.0000000000    15.1670000000      2
     6289  6290  6291  6293    1  180.0000000000    15.1670000000      2
     6312  6290  6291  6292    1  180.0000000000    15.1670000000      2
     6312  6290  6291  6293    1  180.0000000000    15.1670000000      2
     6289  6290  6312  6313    1  180.0000000000    4.1840000000       2
     6289  6290  6312  6347    1  180.0000000000    4.1840000000       2
     6291  6290  6312  6313    1  180.0000000000    4.1840000000       2
     6291  6290  6312  6347    1  180.0000000000    4.1840000000       2
     3889  3891  3883  3885    1  0.0000000000      0.6508444444       3
     3883  3891  3889  3887    1  0.0000000000      0.6508444444       3
     6314  6316  6317  6318    1  0.0000000000      0.0000000000       1
     6314  6316  6317  6319    1  180.0000000000    1.0041600000       2
     6314  6316  6317  6341    1  180.0000000000    1.0041600000       2
     6346  6316  6317  6318    1  0.0000000000      0.0000000000       1
     6346  6316  6317  6319    1  180.0000000000    1.0041600000       2
     6346  6316  6317  6341    1  180.0000000000    1.0041600000       2
     6314  6316  6346  6319    1  180.0000000000    15.1670000000      2
     6314  6316  6346  6347    1  180.0000000000    15.1670000000      2
     6317  6316  6346  6319    1  180.0000000000    15.1670000000      2
     6317  6316  6346  6347    1  180.0000000000    15.1670000000      2
     2660  2662  2664  2665    1  0.0000000000      0.5439200000       3
     2660  2662  2664  2666    1  0.0000000000      2.1756800000       3
     2660  2662  2664  2686    1  0.0000000000      2.1756800000       3
     2663  2662  2664  2665    1  0.0000000000      0.5020800000       3
     2663  2662  2664  2666    1  0.0000000000      0.5439200000       3
     2663  2662  2664  2686    1  0.0000000000      0.5439200000       3
     2689  2662  2664  2665    1  0.0000000000      0.6508444444       3
     2689  2662  2664  2666    1  0.0000000000      0.6508444444       3
     2689  2662  2664  2686    1  0.0000000000      0.6508444444       3
     2660  2662  2689  2659    1  180.0000000000    1.0041600000       2
     2660  2662  2689  2690    1  180.0000000000    1.0041600000       2
     2663  2662  2689  2659    1  0.0000000000      0.0000000000       1
     2663  2662  2689  2690    1  0.0000000000      0.0000000000       1
     2664  2662  2689  2659    1  180.0000000000    1.0041600000       2
     2664  2662  2689  2690    1  180.0000000000    1.0041600000       2
     3901  3931  3932  3897    1  180.0000000000    15.1670000000      2
     3901  3931  3932  3933    1  180.0000000000    15.1670000000      2
     3904  3931  3932  3897    1  180.0000000000    15.1670000000      2
     3904  3931  3932  3933    1  180.0000000000    15.1670000000      2
     368   370   360   359     1  0.0000000000      0.6508444444       3
     368   370   360   361     1  0.0000000000      0.5439200000       3
     368   370   360   362     1  0.0000000000      2.1756800000       3
     360   370   372   364     1  0.0000000000      0.6508444444       3
     360   370   372   373     1  0.0000000000      0.6508444444       3
     360   370   372   374     1  0.0000000000      0.6508444444       3
     368   370   372   373     1  0.0000000000      0.6508444444       3
     368   370   372   374     1  0.0000000000      0.6508444444       3
     371   370   372   364     1  0.0000000000      0.5439200000       3
     371   370   372   373     1  0.0000000000      0.5020800000       3
     371   370   372   374     1  0.0000000000      0.5020800000       3
     360   370   368   366     1  0.0000000000      2.1756800000       3
     371   370   368   366     1  0.0000000000      0.5439200000       3
     372   370   368   366     1  0.0000000000      2.1756800000       3
     360   370   368   369     1  0.0000000000      0.5439200000       3
     371   370   368   369     1  0.0000000000      0.5020800000       3
     372   370   368   369     1  0.0000000000      0.5439200000       3
     360   370   368   2675    1  0.0000000000      0.6508444444       3
     371   370   368   2675    1  0.0000000000      0.6508444444       3
     372   370   368   2675    1  0.0000000000      0.6508444444       3
     6281  6280  6284  6285    1  0.0000000000      0.5439200000       3
     6281  6280  6284  6289    1  0.0000000000      0.6508444444       3
     6281  6280  6284  6313    1  0.0000000000      0.6508444444       3
     6282  6280  6284  6285    1  0.0000000000      0.5439200000       3
     6282  6280  6284  6289    1  0.0000000000      0.6508444444       3
     6282  6280  6284  6313    1  0.0000000000      0.6508444444       3
     6283  6280  6284  6285    1  0.0000000000      0.5439200000       3
     6283  6280  6284  6289    1  0.0000000000      0.6508444444       3
     6283  6280  6284  6313    1  0.0000000000      0.6508444444       3
     370   368   366   367     1  0.0000000000      0.6508444444       3
     2675  368   366   367     1  0.0000000000      0.6508444444       3
     2675  368   366   2676    1  0.0000000000      0.6508444444       3
     370   368   366   2676    1  0.0000000000      0.6508444444       3
     2659  2660  2662  2663    1  0.0000000000      0.6508444444       3
     2659  2660  2662  2664    1  0.0000000000      0.6508444444       3
     2659  2660  2662  2689    1  0.0000000000      0.6508444444       3
     2661  2660  2662  2663    1  0.0000000000      0.6508444444       3
     2661  2660  2662  2664    1  0.0000000000      0.6508444444       3
     2661  2660  2662  2689    1  0.0000000000      0.6508444444       3
     2684  2660  2662  2663    1  0.0000000000      0.6508444444       3
     2684  2660  2662  2664    1  0.0000000000      0.6508444444       3
     2684  2660  2662  2689    1  0.0000000000      0.6508444444       3
     2659  2660  2684  2682    1  0.0000000000      0.6508444444       3
     2659  2660  2684  2685    1  0.0000000000      0.6508444444       3
     2659  2660  2684  2686    1  0.0000000000      0.6508444444       3
     2661  2660  2684  2682    1  0.0000000000      0.5439200000       3
     2661  2660  2684  2685    1  0.0000000000      0.5020800000       3
     2661  2660  2684  2686    1  0.0000000000      0.5439200000       3
     2662  2660  2684  2682    1  0.0000000000      2.1756800000       3
     2662  2660  2684  2685    1  0.0000000000      0.5439200000       3
     2662  2660  2684  2686    1  0.0000000000      2.1756800000       3
     2675  2670  2669  2682    1  180.0000000000    15.1670000000      2
     2669  2670  2671  2672    1  0.0000000000      0.0000000000       2
     2669  2670  2671  2673    1  0.0000000000      0.0000000000       2
     2669  2670  2671  2674    1  0.0000000000      0.0000000000       2
     2669  2670  2675  2676    1  180.0000000000    15.1670000000      2
     2671  2670  2675  2676    1  180.0000000000    15.1670000000      2
     2669  2670  2675  368     1  180.0000000000    15.1670000000      2
     2671  2670  2675  368     1  180.0000000000    15.1670000000      2
     370   372   364   366     1  0.0000000000      0.6508444444       3
     364   372   370   368     1  0.0000000000      0.6508444444       3
     3876  3878  3879  3880    1  0.0000000000      0.0000000000       1
     3876  3878  3879  3881    1  180.0000000000    1.0041600000       2
     3876  3878  3879  3889    1  180.0000000000    1.0041600000       2
     3894  3878  3879  3880    1  0.0000000000      0.0000000000       1
     3894  3878  3879  3881    1  180.0000000000    1.0041600000       2
     3894  3878  3879  3889    1  180.0000000000    1.0041600000       2
     3876  3878  3894  3881    1  180.0000000000    15.1670000000      2
     3876  3878  3894  3895    1  180.0000000000    15.1670000000      2
     3879  3878  3894  3881    1  180.0000000000    15.1670000000      2
     3879  3878  3894  3895    1  180.0000000000    15.1670000000      2
     3869  3874  3875  3876    1  180.0000000000    15.1670000000      2
     3869  3874  3875  3897    1  180.0000000000    15.1670000000      2
     3895  3874  3875  3876    1  180.0000000000    15.1670000000      2
     3895  3874  3875  3897    1  180.0000000000    15.1670000000      2
     3869  3874  3895  3894    1  180.0000000000    15.1670000000      2
     3869  3874  3895  3896    1  180.0000000000    15.1670000000      2
     3875  3874  3895  3894    1  180.0000000000    15.1670000000      2
     3875  3874  3895  3896    1  180.0000000000    15.1670000000      2
     2666  2668  2669  2670    1  180.0000000000    15.1670000000      2
     2666  2668  2669  2682    1  180.0000000000    15.1670000000      2
     2677  2668  2669  2670    1  180.0000000000    15.1670000000      2
     2677  2668  2669  2682    1  180.0000000000    15.1670000000      2
     2666  2668  2677  2678    1  180.0000000000    15.1670000000      2
     2669  2668  2677  2676    1  180.0000000000    15.1670000000      2
     2669  2668  2677  2678    1  180.0000000000    15.1670000000      2
     3887  3889  3879  3878    1  0.0000000000      0.6508444444       3
     3887  3889  3879  3880    1  0.0000000000      0.5439200000       3
     3887  3889  3879  3881    1  0.0000000000      2.1756800000       3
     3879  3889  3887  3885    1  0.0000000000      2.1756800000       3
     3890  3889  3887  3885    1  0.0000000000      0.5439200000       3
     3891  3889  3887  3885    1  0.0000000000      2.1756800000       3
     3879  3889  3887  3888    1  0.0000000000      0.5439200000       3
     3890  3889  3887  3888    1  0.0000000000      0.5020800000       3
     3891  3889  3887  3888    1  0.0000000000      0.5439200000       3
     3879  3889  3891  3883    1  0.0000000000      0.6508444444       3
     3879  3889  3891  3892    1  0.0000000000      0.6508444444       3
     3879  3889  3891  3893    1  0.0000000000      0.6508444444       3
     3887  3889  3891  3892    1  0.0000000000      0.6508444444       3
     3887  3889  3891  3893    1  0.0000000000      0.6508444444       3
     3890  3889  3891  3883    1  0.0000000000      0.5439200000       3
     3890  3889  3891  3892    1  0.0000000000      0.5020800000       3
     3890  3889  3891  3893    1  0.0000000000      0.5020800000       3
     3879  3889  3887  6332    1  0.0000000000      0.6508444444       3
     3890  3889  3887  6332    1  0.0000000000      0.6508444444       3
     3891  3889  3887  6332    1  0.0000000000      0.6508444444       3
     2679  2678  2677  2676    1  0.0000000000      0.0000000000       2
     2680  2678  2677  2676    1  0.0000000000      0.0000000000       2
     2681  2678  2677  2676    1  0.0000000000      0.0000000000       2
     2670  2675  2676  2677    1  180.0000000000    15.1670000000      2
     368   2675  2676  366     1  180.0000000000    15.1670000000      2
     2676  2675  368   366     1  180.0000000000    1.0041600000       2
     2670  2675  368   366     1  180.0000000000    1.0041600000       2
     2676  2675  368   369     1  0.0000000000      0.0000000000       1
     2670  2675  368   369     1  0.0000000000      0.0000000000       1
     2676  2675  368   370     1  180.0000000000    1.0041600000       2
     2670  2675  368   370     1  180.0000000000    1.0041600000       2
     2670  2675  2676  366     1  180.0000000000    15.1670000000      2
     3875  3876  3878  3879    1  180.0000000000    15.1670000000      2
     3875  3876  3878  3894    1  180.0000000000    15.1670000000      2
     3877  3876  3878  3879    1  180.0000000000    15.1670000000      2
     3877  3876  3878  3894    1  180.0000000000    15.1670000000      2
     6284  6289  6290  6291    1  180.0000000000    15.1670000000      2
     6284  6289  6290  6312    1  180.0000000000    15.1670000000      2
     6310  6289  6290  6291    1  180.0000000000    15.1670000000      2
     6310  6289  6290  6312    1  180.0000000000    15.1670000000      2
     6284  6289  6310  6309    1  180.0000000000    15.1670000000      2
     6284  6289  6310  6311    1  180.0000000000    15.1670000000      2
     6290  6289  6310  6309    1  180.0000000000    15.1670000000      2
     6290  6289  6310  6311    1  180.0000000000    15.1670000000      2
     6313  6314  6316  6317    1  180.0000000000    15.1670000000      2
     6313  6314  6316  6346    1  180.0000000000    15.1670000000      2
     6315  6314  6316  6317    1  180.0000000000    15.1670000000      2
     6315  6314  6316  6346    1  180.0000000000    15.1670000000      2
     2672  2671  2670  2675    1  0.0000000000      0.0000000000       2
     2673  2671  2670  2675    1  0.0000000000      0.0000000000       2
     2674  2671  2670  2675    1  0.0000000000      0.0000000000       2
     2656  2657  2659  2660    1  180.0000000000    15.1670000000      2
     2656  2657  2659  2689    1  180.0000000000    15.1670000000      2
     2658  2657  2659  2660    1  180.0000000000    15.1670000000      2
     2658  2657  2659  2689    1  180.0000000000    15.1670000000      2
     2675  2676  2677  2668    1  180.0000000000    15.1670000000      2
     2677  2676  2675  368     1  180.0000000000    15.1670000000      2
     2675  2676  366   364     1  180.0000000000    1.0041600000       2
     2677  2676  366   364     1  180.0000000000    1.0041600000       2
     2675  2676  366   367     1  0.0000000000      0.0000000000       1
     2677  2676  366   367     1  0.0000000000      0.0000000000       1
     2675  2676  366   368     1  180.0000000000    1.0041600000       2
     2677  2676  366   368     1  180.0000000000    1.0041600000       2
     362   364   366   367     1  0.0000000000      0.5439200000       3
     362   364   366   368     1  0.0000000000      2.1756800000       3
     365   364   366   367     1  0.0000000000      0.5020800000       3
     365   364   366   368     1  0.0000000000      0.5439200000       3
     372   364   366   367     1  0.0000000000      0.5439200000       3
     372   364   366   368     1  0.0000000000      2.1756800000       3
     362   364   372   370     1  0.0000000000      0.6508444444       3
     362   364   372   373     1  0.0000000000      0.6508444444       3
     362   364   372   374     1  0.0000000000      0.6508444444       3
     365   364   372   370     1  0.0000000000      0.5439200000       3
     365   364   372   373     1  0.0000000000      0.5020800000       3
     365   364   372   374     1  0.0000000000      0.5020800000       3
     366   364   372   373     1  0.0000000000      0.6508444444       3
     366   364   372   374     1  0.0000000000      0.6508444444       3
     366   364   362   360     1  0.0000000000      2.1756800000       3
     366   364   362   363     1  0.0000000000      0.5439200000       3
     366   364   362   375     1  0.0000000000      0.6508444444       3
     365   364   366   2676    1  0.0000000000      0.6508444444       3
     372   364   366   2676    1  0.0000000000      0.6508444444       3
     362   364   366   2676    1  0.0000000000      0.6508444444       3
     2659  2689  2690  2655    1  180.0000000000    15.1670000000      2
     2659  2689  2690  2691    1  180.0000000000    15.1670000000      2
     2662  2689  2690  2655    1  180.0000000000    15.1670000000      2
     2662  2689  2690  2691    1  180.0000000000    15.1670000000      2
     3875  3897  3898  3869    1  180.0000000000    15.1670000000      2
     3875  3897  3898  3899    1  180.0000000000    15.1670000000      2
     3932  3897  3898  3869    1  180.0000000000    15.1670000000      2
     3932  3897  3898  3899    1  180.0000000000    15.1670000000      2
     3875  3897  3932  3931    1  180.0000000000    15.1670000000      2
     3875  3897  3932  3933    1  180.0000000000    15.1670000000      2
     3898  3897  3932  3931    1  180.0000000000    15.1670000000      2
     3898  3897  3932  3933    1  180.0000000000    15.1670000000      2
     360   362   364   365     1  0.0000000000      0.5439200000       3
     360   362   364   372     1  0.0000000000      2.1756800000       3
     363   362   364   365     1  0.0000000000      0.5020800000       3
     363   362   364   372     1  0.0000000000      0.5439200000       3
     375   362   364   365     1  0.0000000000      0.6508444444       3
     375   362   364   372     1  0.0000000000      0.6508444444       3
     360   362   375   359     1  180.0000000000    1.0041600000       2
     360   362   375   376     1  180.0000000000    1.0041600000       2
     363   362   375   359     1  0.0000000000      0.0000000000       1
     363   362   375   376     1  0.0000000000      0.0000000000       1
     364   362   375   359     1  180.0000000000    1.0041600000       2
     364   362   375   376     1  180.0000000000    1.0041600000       2
     2657  2659  2660  2661    1  0.0000000000      0.0000000000       1
     2657  2659  2660  2662    1  180.0000000000    1.0041600000       2
     2657  2659  2660  2684    1  180.0000000000    1.0041600000       2
     2689  2659  2660  2661    1  0.0000000000      0.0000000000       1
     2689  2659  2660  2662    1  180.0000000000    1.0041600000       2
     2689  2659  2660  2684    1  180.0000000000    1.0041600000       2
     2657  2659  2689  2662    1  180.0000000000    15.1670000000      2
     2657  2659  2689  2690    1  180.0000000000    15.1670000000      2
     2660  2659  2689  2662    1  180.0000000000    15.1670000000      2
     2660  2659  2689  2690    1  180.0000000000    15.1670000000      2
     6284  6313  6314  6315    1  180.0000000000    15.1670000000      2
     6284  6313  6314  6316    1  180.0000000000    15.1670000000      2
     6312  6313  6314  6315    1  180.0000000000    15.1670000000      2
     6312  6313  6314  6316    1  180.0000000000    15.1670000000      2
     2666  2682  2684  2660    1  0.0000000000      2.1756800000       3
     2666  2682  2684  2685    1  0.0000000000      0.5439200000       3
     2666  2682  2684  2686    1  0.0000000000      2.1756800000       3
     2669  2682  2684  2660    1  0.0000000000      0.6508444444       3
     2669  2682  2684  2685    1  0.0000000000      0.6508444444       3
     2669  2682  2684  2686    1  0.0000000000      0.6508444444       3
     2683  2682  2684  2660    1  0.0000000000      0.5439200000       3
     2683  2682  2684  2685    1  0.0000000000      0.5020800000       3
     2683  2682  2684  2686    1  0.0000000000      0.5439200000       3
     6294  6296  6298  6299    1  0.0000000000      0.5439200000       3
     6294  6296  6298  6306    1  0.0000000000      2.1756800000       3
     6297  6296  6298  6299    1  0.0000000000      0.5020800000       3
     6297  6296  6298  6306    1  0.0000000000      0.5439200000       3
     6309  6296  6298  6299    1  0.0000000000      0.6508444444       3
     6309  6296  6298  6306    1  0.0000000000      0.6508444444       3
     6294  6296  6309  6293    1  180.0000000000    1.0041600000       2
     6294  6296  6309  6310    1  180.0000000000    1.0041600000       2
     6297  6296  6309  6293    1  0.0000000000      0.0000000000       1
     6297  6296  6309  6310    1  0.0000000000      0.0000000000       1
     6298  6296  6309  6293    1  180.0000000000    1.0041600000       2
     6298  6296  6309  6310    1  180.0000000000    1.0041600000       2
     2668  2669  2670  2671    1  180.0000000000    15.1670000000      2
     2668  2669  2670  2675    1  180.0000000000    15.1670000000      2
     2682  2669  2670  2671    1  180.0000000000    15.1670000000      2
     2668  2669  2682  2666    1  180.0000000000    1.0041600000       2
     2668  2669  2682  2683    1  0.0000000000      0.0000000000       1
     2668  2669  2682  2684    1  180.0000000000    1.0041600000       2
     2670  2669  2682  2666    1  180.0000000000    1.0041600000       2
     2670  2669  2682  2683    1  0.0000000000      0.0000000000       1
     2670  2669  2682  2684    1  180.0000000000    1.0041600000       2
     6293  6309  6310  6289    1  180.0000000000    15.1670000000      2
     6293  6309  6310  6311    1  180.0000000000    15.1670000000      2
     6296  6309  6310  6289    1  180.0000000000    15.1670000000      2
     6296  6309  6310  6311    1  180.0000000000    15.1670000000      2
     2660  2684  2686  2664    1  0.0000000000      0.6508444444       3
     2660  2684  2686  2687    1  0.0000000000      0.6508444444       3
     2660  2684  2686  2688    1  0.0000000000      0.6508444444       3
     2682  2684  2686  2664    1  0.0000000000      0.6508444444       3
     2682  2684  2686  2687    1  0.0000000000      0.6508444444       3
     2682  2684  2686  2688    1  0.0000000000      0.6508444444       3
     2685  2684  2686  2664    1  0.0000000000      0.5439200000       3
     2685  2684  2686  2687    1  0.0000000000      0.5020800000       3
     2685  2684  2686  2688    1  0.0000000000      0.5020800000       3
     3874  3875  3876  3877    1  180.0000000000    15.1670000000      2
     3874  3875  3876  3878    1  180.0000000000    15.1670000000      2
     3897  3875  3876  3877    1  180.0000000000    15.1670000000      2
     3897  3875  3876  3878    1  180.0000000000    15.1670000000      2
     3874  3875  3897  3898    1  180.0000000000    4.1840000000       2
     3874  3875  3897  3932    1  180.0000000000    4.1840000000       2
     3876  3875  3897  3898    1  180.0000000000    4.1840000000       2
     3876  3875  3897  3932    1  180.0000000000    4.1840000000       2
     6280  6284  6285  6286    1  0.0000000000      0.5439200000       3
     6280  6284  6285  6287    1  0.0000000000      0.5439200000       3
     6280  6284  6285  6288    1  0.0000000000      0.5439200000       3
     6289  6284  6285  6286    1  0.0000000000      0.6508444444       3
     6289  6284  6285  6287    1  0.0000000000      0.6508444444       3
     6289  6284  6285  6288    1  0.0000000000      0.6508444444       3
     6313  6284  6285  6286    1  0.0000000000      0.6508444444       3
     6313  6284  6285  6287    1  0.0000000000      0.6508444444       3
     6313  6284  6285  6288    1  0.0000000000      0.6508444444       3
     6280  6284  6289  6290    1  0.0000000000      0.0000000000       2
     6280  6284  6289  6310    1  180.0000000000    1.0041600000       2
     6285  6284  6289  6290    1  0.0000000000      0.0000000000       2
     6285  6284  6289  6310    1  180.0000000000    1.0041600000       2
     6313  6284  6289  6290    1  0.0000000000      0.0000000000       2
     6313  6284  6289  6310    1  180.0000000000    0.0000000000       2
     6280  6284  6313  6312    1  0.0000000000      0.0000000000       2
     6280  6284  6313  6314    1  180.0000000000    1.0041600000       2
     6285  6284  6313  6312    1  0.0000000000      0.0000000000       2
     6285  6284  6313  6314    1  180.0000000000    1.0041600000       2
     6289  6284  6313  6312    1  0.0000000000      0.0000000000       2
     6289  6284  6313  6314    1  180.0000000000    0.0000000000       2
     2664  2666  2668  2669    1  180.0000000000    1.0041600000       2
     2664  2666  2668  2677    1  180.0000000000    1.0041600000       2
     2667  2666  2668  2669    1  0.0000000000      0.0000000000       1
     2667  2666  2668  2677    1  0.0000000000      0.0000000000       1
     2682  2666  2668  2669    1  180.0000000000    1.0041600000       2
     2682  2666  2668  2677    1  180.0000000000    1.0041600000       2
     2664  2666  2682  2669    1  0.0000000000      0.6508444444       3
     2664  2666  2682  2683    1  0.0000000000      0.6508444444       3
     2664  2666  2682  2684    1  0.0000000000      0.6508444444       3
     2667  2666  2682  2669    1  0.0000000000      0.6508444444       3
     2667  2666  2682  2683    1  0.0000000000      0.6508444444       3
     2667  2666  2682  2684    1  0.0000000000      0.6508444444       3
     2668  2666  2682  2669    1  0.0000000000      0.6508444444       3
     2668  2666  2682  2683    1  0.0000000000      0.6508444444       3
     2668  2666  2682  2684    1  0.0000000000      0.6508444444       3
     2668  2677  2678  2679    1  0.0000000000      0.0000000000       2
     2668  2677  2678  2680    1  0.0000000000      0.0000000000       2
     2668  2677  2678  2681    1  0.0000000000      0.0000000000       2
     2678  2677  2676  2675    1  180.0000000000    15.1670000000      2
     2676  2677  2668  2666    1  180.0000000000    15.1670000000      2
     2678  2677  2676  366     1  180.0000000000    15.1670000000      2
     2668  2677  2676  366     1  180.0000000000    15.1670000000      2
     364   366   368   369     1  0.0000000000      0.6508444444       3
     364   366   368   370     1  0.0000000000      0.6508444444       3
     367   366   368   369     1  0.0000000000      0.6508444444       3
     364   366   368   2675    1  0.0000000000      0.6508444444       3
     2676  366   368   369     1  0.0000000000      0.6508444444       3
     6298  6300  6302  6303    1  0.0000000000      0.6508444444       3
     6298  6300  6302  6304    1  0.0000000000      0.6508444444       3
     6301  6300  6302  6303    1  0.0000000000      0.6508444444       3
     3849  6300  6302  6303    1  0.0000000000      0.6508444444       3
     3849  6300  6302  3848    1  0.0000000000      0.6508444444       3
     6298  6300  6302  3848    1  0.0000000000      0.6508444444       3
     3402  3400  3398  3396    1  0.0000000000      2.1756800000       3
     3402  3400  3398  3399    1  0.0000000000      0.5439200000       3
     3402  3400  3398  3411    1  0.0000000000      0.6508444444       3
     3398  3400  3402  3403    1  0.0000000000      0.5439200000       3
     3398  3400  3402  3404    1  0.0000000000      2.1756800000       3
     3401  3400  3402  3403    1  0.0000000000      0.5020800000       3
     3401  3400  3402  3404    1  0.0000000000      0.5439200000       3
     3408  3400  3402  3403    1  0.0000000000      0.5439200000       3
     3408  3400  3402  3404    1  0.0000000000      2.1756800000       3
     3398  3400  3408  3406    1  0.0000000000      0.6508444444       3
     3398  3400  3408  3409    1  0.0000000000      0.6508444444       3
     3398  3400  3408  3410    1  0.0000000000      0.6508444444       3
     3401  3400  3408  3406    1  0.0000000000      0.5439200000       3
     3401  3400  3408  3409    1  0.0000000000      0.5020800000       3
     3401  3400  3408  3410    1  0.0000000000      0.5020800000       3
     3402  3400  3408  3409    1  0.0000000000      0.6508444444       3
     3402  3400  3408  3410    1  0.0000000000      0.6508444444       3
     3398  3400  3402  4538    1  0.0000000000      0.6508444444       3
     3401  3400  3402  4538    1  0.0000000000      0.6508444444       3
     3408  3400  3402  4538    1  0.0000000000      0.6508444444       3
     3400  3402  3404  3405    1  0.0000000000      0.6508444444       3
     3400  3402  3404  3406    1  0.0000000000      0.6508444444       3
     3403  3402  3404  3405    1  0.0000000000      0.6508444444       3
     3400  3402  3404  4539    1  0.0000000000      0.6508444444       3
     4538  3402  3404  3405    1  0.0000000000      0.6508444444       3
     3396  3406  3404  3402    1  0.0000000000      2.1756800000       3
     3407  3406  3404  3402    1  0.0000000000      0.5439200000       3
     3408  3406  3404  3402    1  0.0000000000      2.1756800000       3
     3396  3406  3404  3405    1  0.0000000000      0.5439200000       3
     3407  3406  3404  3405    1  0.0000000000      0.5020800000       3
     3408  3406  3404  3405    1  0.0000000000      0.5439200000       3
     3396  3406  3408  3400    1  0.0000000000      0.6508444444       3
     3396  3406  3408  3409    1  0.0000000000      0.6508444444       3
     3396  3406  3408  3410    1  0.0000000000      0.6508444444       3
     3404  3406  3408  3409    1  0.0000000000      0.6508444444       3
     3404  3406  3408  3410    1  0.0000000000      0.6508444444       3
     3407  3406  3408  3400    1  0.0000000000      0.5439200000       3
     3407  3406  3408  3409    1  0.0000000000      0.5020800000       3
     3407  3406  3408  3410    1  0.0000000000      0.5020800000       3
     3404  3406  3396  3395    1  0.0000000000      0.6508444444       3
     3404  3406  3396  3397    1  0.0000000000      0.5439200000       3
     3404  3406  3396  3398    1  0.0000000000      2.1756800000       3
     3407  3406  3404  4539    1  0.0000000000      0.6508444444       3
     3408  3406  3404  4539    1  0.0000000000      0.6508444444       3
     3396  3406  3404  4539    1  0.0000000000      0.6508444444       3
     3400  3408  3406  3404    1  0.0000000000      0.6508444444       3
     3406  3408  3400  3402    1  0.0000000000      0.6508444444       3
     3832  3833  3835  3836    1  0.0000000000      0.6508444444       3
     3832  3833  3835  3837    1  0.0000000000      0.6508444444       3
     3832  3833  3835  3862    1  0.0000000000      0.6508444444       3
     3834  3833  3835  3836    1  0.0000000000      0.6508444444       3
     3834  3833  3835  3837    1  0.0000000000      0.6508444444       3
     3834  3833  3835  3862    1  0.0000000000      0.6508444444       3
     3857  3833  3835  3836    1  0.0000000000      0.6508444444       3
     3857  3833  3835  3837    1  0.0000000000      0.6508444444       3
     3857  3833  3835  3862    1  0.0000000000      0.6508444444       3
     3832  3833  3857  3855    1  0.0000000000      0.6508444444       3
     3832  3833  3857  3858    1  0.0000000000      0.6508444444       3
     3832  3833  3857  3859    1  0.0000000000      0.6508444444       3
     3834  3833  3857  3855    1  0.0000000000      0.5439200000       3
     3834  3833  3857  3858    1  0.0000000000      0.5020800000       3
     3834  3833  3857  3859    1  0.0000000000      0.5439200000       3
     3835  3833  3857  3855    1  0.0000000000      2.1756800000       3
     3835  3833  3857  3858    1  0.0000000000      0.5439200000       3
     3835  3833  3857  3859    1  0.0000000000      2.1756800000       3
     3833  3835  3837  3838    1  0.0000000000      0.5439200000       3
     3833  3835  3837  3839    1  0.0000000000      2.1756800000       3
     3833  3835  3837  3859    1  0.0000000000      2.1756800000       3
     3836  3835  3837  3838    1  0.0000000000      0.5020800000       3
     3836  3835  3837  3839    1  0.0000000000      0.5439200000       3
     3836  3835  3837  3859    1  0.0000000000      0.5439200000       3
     3862  3835  3837  3838    1  0.0000000000      0.6508444444       3
     3862  3835  3837  3839    1  0.0000000000      0.6508444444       3
     3862  3835  3837  3859    1  0.0000000000      0.6508444444       3
     3833  3835  3862  3832    1  180.0000000000    1.0041600000       2
     3833  3835  3862  3863    1  180.0000000000    1.0041600000       2
     3836  3835  3862  3832    1  0.0000000000      0.0000000000       1
     3836  3835  3862  3863    1  0.0000000000      0.0000000000       1
     3837  3835  3862  3832    1  180.0000000000    1.0041600000       2
     3837  3835  3862  3863    1  180.0000000000    1.0041600000       2
     4532  4533  4534  4535    1  0.0000000000      0.0000000000       2
     4532  4533  4534  4536    1  0.0000000000      0.0000000000       2
     4532  4533  4534  4537    1  0.0000000000      0.0000000000       2
     4532  4533  4538  4539    1  180.0000000000    15.1670000000      2
     4534  4533  4538  4539    1  180.0000000000    15.1670000000      2
     4538  4533  4532  4545    1  180.0000000000    15.1670000000      2
     4534  4533  4538  3402    1  180.0000000000    15.1670000000      2
     4532  4533  4538  3402    1  180.0000000000    15.1670000000      2
     4535  4534  4533  4538    1  0.0000000000      0.0000000000       2
     4536  4534  4533  4538    1  0.0000000000      0.0000000000       2
     4537  4534  4533  4538    1  0.0000000000      0.0000000000       2
     4533  4538  4539  4540    1  180.0000000000    15.1670000000      2
     4533  4538  4539  3404    1  180.0000000000    15.1670000000      2
     4533  4538  3402  3403    1  0.0000000000      0.0000000000       1
     4539  4538  3402  3403    1  0.0000000000      0.0000000000       1
     4533  4538  3402  3404    1  180.0000000000    1.0041600000       2
     4539  4538  3402  3404    1  180.0000000000    1.0041600000       2
     4533  4538  3402  3400    1  180.0000000000    1.0041600000       2
     4539  4538  3402  3400    1  180.0000000000    1.0041600000       2
     3830  3832  3833  3834    1  0.0000000000      0.0000000000       1
     3830  3832  3833  3835    1  180.0000000000    1.0041600000       2
     3830  3832  3833  3857    1  180.0000000000    1.0041600000       2
     3862  3832  3833  3834    1  0.0000000000      0.0000000000       1
     3862  3832  3833  3835    1  180.0000000000    1.0041600000       2
     3862  3832  3833  3857    1  180.0000000000    1.0041600000       2
     3830  3832  3862  3835    1  180.0000000000    15.1670000000      2
     3830  3832  3862  3863    1  180.0000000000    15.1670000000      2
     3833  3832  3862  3835    1  180.0000000000    15.1670000000      2
     3833  3832  3862  3863    1  180.0000000000    15.1670000000      2
     3832  3862  3863  3828    1  180.0000000000    15.1670000000      2
     3832  3862  3863  3864    1  180.0000000000    15.1670000000      2
     3835  3862  3863  3828    1  180.0000000000    15.1670000000      2
     3835  3862  3863  3864    1  180.0000000000    15.1670000000      2
     3406  3404  3402  3403    1  0.0000000000      0.6508444444       3
     4539  3404  3402  3403    1  0.0000000000      0.6508444444       3
     4539  3404  3402  4538    1  0.0000000000      0.6508444444       3
     3406  3404  3402  4538    1  0.0000000000      0.6508444444       3
     3382  3386  3387  3388    1  0.0000000000      0.5439200000       3
     3382  3386  3387  3389    1  0.0000000000      0.5439200000       3
     3382  3386  3387  3390    1  0.0000000000      0.5439200000       3
     3391  3386  3387  3388    1  0.0000000000      0.6508444444       3
     3391  3386  3387  3389    1  0.0000000000      0.6508444444       3
     3391  3386  3387  3390    1  0.0000000000      0.6508444444       3
     3415  3386  3387  3388    1  0.0000000000      0.6508444444       3
     3415  3386  3387  3389    1  0.0000000000      0.6508444444       3
     3415  3386  3387  3390    1  0.0000000000      0.6508444444       3
     3382  3386  3391  3392    1  0.0000000000      0.0000000000       2
     3382  3386  3391  3412    1  180.0000000000    1.0041600000       2
     3387  3386  3391  3392    1  0.0000000000      0.0000000000       2
     3387  3386  3391  3412    1  180.0000000000    1.0041600000       2
     3415  3386  3391  3392    1  0.0000000000      0.0000000000       2
     3415  3386  3391  3412    1  180.0000000000    0.0000000000       2
     3382  3386  3415  3414    1  0.0000000000      0.0000000000       2
     3382  3386  3415  3416    1  180.0000000000    1.0041600000       2
     3387  3386  3415  3414    1  0.0000000000      0.0000000000       2
     3387  3386  3415  3416    1  180.0000000000    1.0041600000       2
     3391  3386  3415  3414    1  0.0000000000      0.0000000000       2
     3391  3386  3415  3416    1  180.0000000000    0.0000000000       2
     3395  3396  3398  3399    1  0.0000000000      0.6508444444       3
     3395  3396  3398  3400    1  0.0000000000      0.6508444444       3
     3395  3396  3398  3411    1  0.0000000000      0.6508444444       3
     3397  3396  3398  3399    1  0.0000000000      0.6508444444       3
     3397  3396  3398  3400    1  0.0000000000      0.6508444444       3
     3397  3396  3398  3411    1  0.0000000000      0.6508444444       3
     3406  3396  3398  3399    1  0.0000000000      0.6508444444       3
     3406  3396  3398  3400    1  0.0000000000      0.6508444444       3
     3406  3396  3398  3411    1  0.0000000000      0.6508444444       3
     3395  3396  3406  3407    1  0.0000000000      0.6508444444       3
     3395  3396  3406  3408    1  0.0000000000      0.6508444444       3
     3397  3396  3406  3407    1  0.0000000000      0.5020800000       3
     3397  3396  3406  3408    1  0.0000000000      0.5439200000       3
     3398  3396  3406  3407    1  0.0000000000      0.5439200000       3
     3398  3396  3406  3408    1  0.0000000000      2.1756800000       3
     3396  3398  3400  3401    1  0.0000000000      0.5439200000       3
     3396  3398  3400  3408    1  0.0000000000      2.1756800000       3
     3399  3398  3400  3401    1  0.0000000000      0.5020800000       3
     3399  3398  3400  3408    1  0.0000000000      0.5439200000       3
     3411  3398  3400  3401    1  0.0000000000      0.6508444444       3
     3411  3398  3400  3408    1  0.0000000000      0.6508444444       3
     3396  3398  3411  3395    1  180.0000000000    1.0041600000       2
     3396  3398  3411  3412    1  180.0000000000    1.0041600000       2
     3399  3398  3411  3395    1  0.0000000000      0.0000000000       1
     3399  3398  3411  3412    1  0.0000000000      0.0000000000       1
     3400  3398  3411  3395    1  180.0000000000    1.0041600000       2
     3400  3398  3411  3412    1  180.0000000000    1.0041600000       2
     3386  3391  3392  3393    1  180.0000000000    15.1670000000      2
     3386  3391  3392  3414    1  180.0000000000    15.1670000000      2
     3412  3391  3392  3393    1  180.0000000000    15.1670000000      2
     3412  3391  3392  3414    1  180.0000000000    15.1670000000      2
     3386  3391  3412  3411    1  180.0000000000    15.1670000000      2
     3386  3391  3412  3413    1  180.0000000000    15.1670000000      2
     3392  3391  3412  3411    1  180.0000000000    15.1670000000      2
     3392  3391  3412  3413    1  180.0000000000    15.1670000000      2
     4538  4539  4540  4531    1  180.0000000000    15.1670000000      2
     3404  4539  4538  3402    1  180.0000000000    15.1670000000      2
     4538  4539  3404  3405    1  0.0000000000      0.0000000000       1
     4540  4539  3404  3405    1  0.0000000000      0.0000000000       1
     4538  4539  3404  3406    1  180.0000000000    1.0041600000       2
     4540  4539  3404  3406    1  180.0000000000    1.0041600000       2
     4538  4539  3404  3402    1  180.0000000000    1.0041600000       2
     4540  4539  3404  3402    1  180.0000000000    1.0041600000       2
     4540  4539  4538  3402    1  180.0000000000    15.1670000000      2
     3393  3395  3396  3397    1  0.0000000000      0.0000000000       1
     3393  3395  3396  3398    1  180.0000000000    1.0041600000       2
     3393  3395  3396  3406    1  180.0000000000    1.0041600000       2
     3411  3395  3396  3397    1  0.0000000000      0.0000000000       1
     3411  3395  3396  3398    1  180.0000000000    1.0041600000       2
     3411  3395  3396  3406    1  180.0000000000    1.0041600000       2
     3393  3395  3411  3398    1  180.0000000000    15.1670000000      2
     3393  3395  3411  3412    1  180.0000000000    15.1670000000      2
     3396  3395  3411  3398    1  180.0000000000    15.1670000000      2
     3396  3395  3411  3412    1  180.0000000000    15.1670000000      2
     3395  3411  3412  3391    1  180.0000000000    15.1670000000      2
     3395  3411  3412  3413    1  180.0000000000    15.1670000000      2
     3398  3411  3412  3391    1  180.0000000000    15.1670000000      2
     3398  3411  3412  3413    1  180.0000000000    15.1670000000      2
     3796  3800  3801  3802    1  0.0000000000      0.5439200000       3
     3796  3800  3801  3803    1  0.0000000000      0.5439200000       3
     3796  3800  3801  3804    1  0.0000000000      0.5439200000       3
     3805  3800  3801  3802    1  0.0000000000      0.6508444444       3
     3805  3800  3801  3803    1  0.0000000000      0.6508444444       3
     3805  3800  3801  3804    1  0.0000000000      0.6508444444       3
     3829  3800  3801  3802    1  0.0000000000      0.6508444444       3
     3829  3800  3801  3803    1  0.0000000000      0.6508444444       3
     3829  3800  3801  3804    1  0.0000000000      0.6508444444       3
     3796  3800  3805  3806    1  0.0000000000      0.0000000000       2
     3796  3800  3805  3826    1  180.0000000000    1.0041600000       2
     3801  3800  3805  3806    1  0.0000000000      0.0000000000       2
     3801  3800  3805  3826    1  180.0000000000    1.0041600000       2
     3829  3800  3805  3806    1  0.0000000000      0.0000000000       2
     3829  3800  3805  3826    1  180.0000000000    0.0000000000       2
     3796  3800  3829  3828    1  0.0000000000      0.0000000000       2
     3796  3800  3829  3830    1  180.0000000000    1.0041600000       2
     3801  3800  3829  3828    1  0.0000000000      0.0000000000       2
     3801  3800  3829  3830    1  180.0000000000    1.0041600000       2
     3805  3800  3829  3828    1  0.0000000000      0.0000000000       2
     3805  3800  3829  3830    1  180.0000000000    0.0000000000       2
     3835  3837  3839  3840    1  0.0000000000      0.5439200000       3
     3835  3837  3839  3841    1  0.0000000000      0.6508444444       3
     3835  3837  3839  3855    1  0.0000000000      2.1756800000       3
     3838  3837  3839  3840    1  0.0000000000      0.5020800000       3
     3838  3837  3839  3841    1  0.0000000000      0.6508444444       3
     3838  3837  3839  3855    1  0.0000000000      0.5439200000       3
     3859  3837  3839  3840    1  0.0000000000      0.5439200000       3
     3859  3837  3839  3841    1  0.0000000000      0.6508444444       3
     3859  3837  3839  3855    1  0.0000000000      2.1756800000       3
     3835  3837  3859  3857    1  0.0000000000      0.6508444444       3
     3835  3837  3859  3860    1  0.0000000000      0.6508444444       3
     3835  3837  3859  3861    1  0.0000000000      0.6508444444       3
     3838  3837  3859  3857    1  0.0000000000      0.5439200000       3
     3838  3837  3859  3860    1  0.0000000000      0.5020800000       3
     3838  3837  3859  3861    1  0.0000000000      0.5020800000       3
     3839  3837  3859  3857    1  0.0000000000      0.6508444444       3
     3839  3837  3859  3860    1  0.0000000000      0.6508444444       3
     3839  3837  3859  3861    1  0.0000000000      0.6508444444       3
     3829  3830  3832  3833    1  180.0000000000    15.1670000000      2
     3829  3830  3832  3862    1  180.0000000000    15.1670000000      2
     3831  3830  3832  3833    1  180.0000000000    15.1670000000      2
     3831  3830  3832  3862    1  180.0000000000    15.1670000000      2
     4531  4532  4533  4534    1  180.0000000000    15.1670000000      2
     4531  4532  4533  4538    1  180.0000000000    15.1670000000      2
     4545  4532  4533  4534    1  180.0000000000    15.1670000000      2
     4531  4532  4545  4529    1  180.0000000000    1.0041600000       2
     4531  4532  4545  4546    1  0.0000000000      0.0000000000       1
     4531  4532  4545  4547    1  180.0000000000    1.0041600000       2
     4533  4532  4545  4529    1  180.0000000000    1.0041600000       2
     4533  4532  4545  4546    1  0.0000000000      0.0000000000       1
     4533  4532  4545  4547    1  180.0000000000    1.0041600000       2
     4529  4531  4532  4533    1  180.0000000000    15.1670000000      2
     4529  4531  4532  4545    1  180.0000000000    15.1670000000      2
     4540  4531  4532  4533    1  180.0000000000    15.1670000000      2
     4540  4531  4532  4545    1  180.0000000000    15.1670000000      2
     4529  4531  4540  4541    1  180.0000000000    15.1670000000      2
     4532  4531  4540  4539    1  180.0000000000    15.1670000000      2
     4532  4531  4540  4541    1  180.0000000000    15.1670000000      2
     3391  3392  3393  3394    1  180.0000000000    15.1670000000      2
     3391  3392  3393  3395    1  180.0000000000    15.1670000000      2
     3414  3392  3393  3394    1  180.0000000000    15.1670000000      2
     3414  3392  3393  3395    1  180.0000000000    15.1670000000      2
     3391  3392  3414  3415    1  180.0000000000    4.1840000000       2
     3391  3392  3414  3449    1  180.0000000000    4.1840000000       2
     3393  3392  3414  3415    1  180.0000000000    4.1840000000       2
     3393  3392  3414  3449    1  180.0000000000    4.1840000000       2
     3392  3393  3395  3396    1  180.0000000000    15.1670000000      2
     3392  3393  3395  3411    1  180.0000000000    15.1670000000      2
     3394  3393  3395  3396    1  180.0000000000    15.1670000000      2
     3394  3393  3395  3411    1  180.0000000000    15.1670000000      2
     3806  3828  3829  3800    1  180.0000000000    15.1670000000      2
     3806  3828  3829  3830    1  180.0000000000    15.1670000000      2
     3863  3828  3829  3800    1  180.0000000000    15.1670000000      2
     3863  3828  3829  3830    1  180.0000000000    15.1670000000      2
     3806  3828  3863  3862    1  180.0000000000    15.1670000000      2
     3806  3828  3863  3864    1  180.0000000000    15.1670000000      2
     3829  3828  3863  3862    1  180.0000000000    15.1670000000      2
     3829  3828  3863  3864    1  180.0000000000    15.1670000000      2
     3800  3829  3830  3831    1  180.0000000000    15.1670000000      2
     3800  3829  3830  3832    1  180.0000000000    15.1670000000      2
     3828  3829  3830  3831    1  180.0000000000    15.1670000000      2
     3828  3829  3830  3832    1  180.0000000000    15.1670000000      2
     3386  3415  3416  3417    1  180.0000000000    15.1670000000      2
     3386  3415  3416  3418    1  180.0000000000    15.1670000000      2
     3414  3415  3416  3417    1  180.0000000000    15.1670000000      2
     3414  3415  3416  3418    1  180.0000000000    15.1670000000      2
     318   320   322   323     1  180.0000000000    1.0041600000       2
     318   320   322   331     1  180.0000000000    1.0041600000       2
     321   320   322   323     1  0.0000000000      0.0000000000       1
     321   320   322   331     1  0.0000000000      0.0000000000       1
     336   320   322   323     1  180.0000000000    1.0041600000       2
     336   320   322   331     1  180.0000000000    1.0041600000       2
     318   320   336   323     1  0.0000000000      0.6508444444       3
     318   320   336   337     1  0.0000000000      0.6508444444       3
     318   320   336   338     1  0.0000000000      0.6508444444       3
     321   320   336   323     1  0.0000000000      0.6508444444       3
     321   320   336   337     1  0.0000000000      0.6508444444       3
     321   320   336   338     1  0.0000000000      0.6508444444       3
     322   320   336   323     1  0.0000000000      0.6508444444       3
     322   320   336   337     1  0.0000000000      0.6508444444       3
     322   320   336   338     1  0.0000000000      0.6508444444       3
     3839  3841  3842  3843    1  180.0000000000    15.1670000000      2
     3839  3841  3842  3855    1  180.0000000000    15.1670000000      2
     3850  3841  3842  3843    1  180.0000000000    15.1670000000      2
     3850  3841  3842  3855    1  180.0000000000    15.1670000000      2
     3839  3841  3850  3851    1  180.0000000000    15.1670000000      2
     3842  3841  3850  3849    1  180.0000000000    15.1670000000      2
     3842  3841  3850  3851    1  180.0000000000    15.1670000000      2
     3837  3839  3841  3842    1  180.0000000000    1.0041600000       2
     3837  3839  3841  3850    1  180.0000000000    1.0041600000       2
     3840  3839  3841  3842    1  0.0000000000      0.0000000000       1
     3840  3839  3841  3850    1  0.0000000000      0.0000000000       1
     3855  3839  3841  3842    1  180.0000000000    1.0041600000       2
     3855  3839  3841  3850    1  180.0000000000    1.0041600000       2
     3837  3839  3855  3842    1  0.0000000000      0.6508444444       3
     3837  3839  3855  3856    1  0.0000000000      0.6508444444       3
     3837  3839  3855  3857    1  0.0000000000      0.6508444444       3
     3840  3839  3855  3842    1  0.0000000000      0.6508444444       3
     3840  3839  3855  3856    1  0.0000000000      0.6508444444       3
     3840  3839  3855  3857    1  0.0000000000      0.6508444444       3
     3841  3839  3855  3842    1  0.0000000000      0.6508444444       3
     3841  3839  3855  3856    1  0.0000000000      0.6508444444       3
     3841  3839  3855  3857    1  0.0000000000      0.6508444444       3
     3833  3857  3859  3837    1  0.0000000000      0.6508444444       3
     3833  3857  3859  3860    1  0.0000000000      0.6508444444       3
     3833  3857  3859  3861    1  0.0000000000      0.6508444444       3
     3855  3857  3859  3837    1  0.0000000000      0.6508444444       3
     3855  3857  3859  3860    1  0.0000000000      0.6508444444       3
     3855  3857  3859  3861    1  0.0000000000      0.6508444444       3
     3858  3857  3859  3837    1  0.0000000000      0.5439200000       3
     3858  3857  3859  3860    1  0.0000000000      0.5020800000       3
     3858  3857  3859  3861    1  0.0000000000      0.5020800000       3
     5817  5815  5813  5811    1  0.0000000000      2.1756800000       3
     5817  5815  5813  5814    1  0.0000000000      0.5439200000       3
     5817  5815  5813  5826    1  0.0000000000      0.6508444444       3
     5813  5815  5817  5818    1  0.0000000000      0.5439200000       3
     5813  5815  5817  5819    1  0.0000000000      2.1756800000       3
     5816  5815  5817  5818    1  0.0000000000      0.5020800000       3
     5816  5815  5817  5819    1  0.0000000000      0.5439200000       3
     5823  5815  5817  5818    1  0.0000000000      0.5439200000       3
     5823  5815  5817  5819    1  0.0000000000      2.1756800000       3
     5813  5815  5823  5821    1  0.0000000000      0.6508444444       3
     5813  5815  5823  5824    1  0.0000000000      0.6508444444       3
     5813  5815  5823  5825    1  0.0000000000      0.6508444444       3
     5816  5815  5823  5821    1  0.0000000000      0.5439200000       3
     5816  5815  5823  5824    1  0.0000000000      0.5020800000       3
     5816  5815  5823  5825    1  0.0000000000      0.5020800000       3
     5817  5815  5823  5824    1  0.0000000000      0.6508444444       3
     5817  5815  5823  5825    1  0.0000000000      0.6508444444       3
     5813  5815  5817  1295    1  0.0000000000      0.6508444444       3
     5816  5815  5817  1295    1  0.0000000000      0.6508444444       3
     5823  5815  5817  1295    1  0.0000000000      0.6508444444       3
     5811  5813  5815  5816    1  0.0000000000      0.5439200000       3
     5811  5813  5815  5823    1  0.0000000000      2.1756800000       3
     5814  5813  5815  5816    1  0.0000000000      0.5020800000       3
     5814  5813  5815  5823    1  0.0000000000      0.5439200000       3
     5826  5813  5815  5816    1  0.0000000000      0.6508444444       3
     5826  5813  5815  5823    1  0.0000000000      0.6508444444       3
     5811  5813  5826  5810    1  180.0000000000    1.0041600000       2
     5811  5813  5826  5827    1  180.0000000000    1.0041600000       2
     5814  5813  5826  5810    1  0.0000000000      0.0000000000       1
     5814  5813  5826  5827    1  0.0000000000      0.0000000000       1
     5815  5813  5826  5810    1  180.0000000000    1.0041600000       2
     5815  5813  5826  5827    1  180.0000000000    1.0041600000       2
     3848  3849  3850  3841    1  180.0000000000    15.1670000000      2
     6300  3849  3848  6302    1  180.0000000000    15.1670000000      2
     3848  3849  6300  6301    1  0.0000000000      0.0000000000       1
     3850  3849  6300  6301    1  0.0000000000      0.0000000000       1
     3848  3849  6300  6302    1  180.0000000000    1.0041600000       2
     3850  3849  6300  6302    1  180.0000000000    1.0041600000       2
     3848  3849  6300  6298    1  180.0000000000    1.0041600000       2
     3850  3849  6300  6298    1  180.0000000000    1.0041600000       2
     3850  3849  3848  6302    1  180.0000000000    15.1670000000      2
     4529  4545  4547  4523    1  0.0000000000      2.1756800000       3
     4529  4545  4547  4548    1  0.0000000000      0.5439200000       3
     4529  4545  4547  4549    1  0.0000000000      2.1756800000       3
     4532  4545  4547  4523    1  0.0000000000      0.6508444444       3
     4532  4545  4547  4548    1  0.0000000000      0.6508444444       3
     4532  4545  4547  4549    1  0.0000000000      0.6508444444       3
     4546  4545  4547  4523    1  0.0000000000      0.5439200000       3
     4546  4545  4547  4548    1  0.0000000000      0.5020800000       3
     4546  4545  4547  4549    1  0.0000000000      0.5439200000       3
     3839  3855  3857  3833    1  0.0000000000      2.1756800000       3
     3839  3855  3857  3858    1  0.0000000000      0.5439200000       3
     3839  3855  3857  3859    1  0.0000000000      2.1756800000       3
     3842  3855  3857  3833    1  0.0000000000      0.6508444444       3
     3842  3855  3857  3858    1  0.0000000000      0.6508444444       3
     3842  3855  3857  3859    1  0.0000000000      0.6508444444       3
     3856  3855  3857  3833    1  0.0000000000      0.5439200000       3
     3856  3855  3857  3858    1  0.0000000000      0.5020800000       3
     3856  3855  3857  3859    1  0.0000000000      0.5439200000       3
     3841  3842  3843  3844    1  180.0000000000    15.1670000000      2
     3841  3842  3843  3848    1  180.0000000000    15.1670000000      2
     3855  3842  3843  3844    1  180.0000000000    15.1670000000      2
     3841  3842  3855  3839    1  180.0000000000    1.0041600000       2
     3841  3842  3855  3856    1  0.0000000000      0.0000000000       1
     3841  3842  3855  3857    1  180.0000000000    1.0041600000       2
     3843  3842  3855  3839    1  180.0000000000    1.0041600000       2
     3843  3842  3855  3856    1  0.0000000000      0.0000000000       1
     3843  3842  3855  3857    1  180.0000000000    1.0041600000       2
     5810  5826  5827  5806    1  180.0000000000    15.1670000000      2
     5810  5826  5827  5828    1  180.0000000000    15.1670000000      2
     5813  5826  5827  5806    1  180.0000000000    15.1670000000      2
     5813  5826  5827  5828    1  180.0000000000    15.1670000000      2
     3805  3806  3807  3808    1  180.0000000000    15.1670000000      2
     3805  3806  3807  3809    1  180.0000000000    15.1670000000      2
     3828  3806  3807  3808    1  180.0000000000    15.1670000000      2
     3828  3806  3807  3809    1  180.0000000000    15.1670000000      2
     3805  3806  3828  3829    1  180.0000000000    4.1840000000       2
     3805  3806  3828  3863    1  180.0000000000    4.1840000000       2
     3807  3806  3828  3829    1  180.0000000000    4.1840000000       2
     3807  3806  3828  3863    1  180.0000000000    4.1840000000       2
     3383  3382  3386  3387    1  0.0000000000      0.5439200000       3
     3383  3382  3386  3391    1  0.0000000000      0.6508444444       3
     3383  3382  3386  3415    1  0.0000000000      0.6508444444       3
     3384  3382  3386  3387    1  0.0000000000      0.5439200000       3
     3384  3382  3386  3391    1  0.0000000000      0.6508444444       3
     3384  3382  3386  3415    1  0.0000000000      0.6508444444       3
     3385  3382  3386  3387    1  0.0000000000      0.5439200000       3
     3385  3382  3386  3391    1  0.0000000000      0.6508444444       3
     3385  3382  3386  3415    1  0.0000000000      0.6508444444       3
     3849  3850  3841  3839    1  180.0000000000    15.1670000000      2
     3851  3850  3849  3848    1  180.0000000000    15.1670000000      2
     3841  3850  3851  3852    1  0.0000000000      0.0000000000       2
     3841  3850  3851  3853    1  0.0000000000      0.0000000000       2
     3841  3850  3851  3854    1  0.0000000000      0.0000000000       2
     3841  3850  3849  6300    1  180.0000000000    15.1670000000      2
     3851  3850  3849  6300    1  180.0000000000    15.1670000000      2
     326   325   324   329     1  0.0000000000      0.0000000000       2
     327   325   324   329     1  0.0000000000      0.0000000000       2
     328   325   324   329     1  0.0000000000      0.0000000000       2
     324   329   330   331     1  180.0000000000    15.1670000000      2
     4370  329   330   4368    1  180.0000000000    15.1670000000      2
     324   329   4370  4368    1  180.0000000000    1.0041600000       2
     330   329   4370  4368    1  180.0000000000    1.0041600000       2
     324   329   4370  4371    1  0.0000000000      0.0000000000       1
     330   329   4370  4371    1  0.0000000000      0.0000000000       1
     324   329   4370  4372    1  180.0000000000    1.0041600000       2
     330   329   4370  4372    1  180.0000000000    1.0041600000       2
     324   329   330   4368    1  180.0000000000    15.1670000000      2
     4372  4370  4368  4369    1  0.0000000000      0.6508444444       3
     329   4370  4368  4369    1  0.0000000000      0.6508444444       3
     329   4370  4368  330     1  0.0000000000      0.6508444444       3
     4372  4370  4368  330     1  0.0000000000      0.6508444444       3
     4527  4529  4531  4532    1  180.0000000000    1.0041600000       2
     4527  4529  4531  4540    1  180.0000000000    1.0041600000       2
     4530  4529  4531  4532    1  0.0000000000      0.0000000000       1
     4530  4529  4531  4540    1  0.0000000000      0.0000000000       1
     4545  4529  4531  4532    1  180.0000000000    1.0041600000       2
     4545  4529  4531  4540    1  180.0000000000    1.0041600000       2
     4527  4529  4545  4532    1  0.0000000000      0.6508444444       3
     4527  4529  4545  4546    1  0.0000000000      0.6508444444       3
     4527  4529  4545  4547    1  0.0000000000      0.6508444444       3
     4530  4529  4545  4532    1  0.0000000000      0.6508444444       3
     4530  4529  4545  4546    1  0.0000000000      0.6508444444       3
     4530  4529  4545  4547    1  0.0000000000      0.6508444444       3
     4531  4529  4545  4532    1  0.0000000000      0.6508444444       3
     4531  4529  4545  4546    1  0.0000000000      0.6508444444       3
     4531  4529  4545  4547    1  0.0000000000      0.6508444444       3
     322   323   324   325     1  180.0000000000    15.1670000000      2
     322   323   324   329     1  180.0000000000    15.1670000000      2
     336   323   324   325     1  180.0000000000    15.1670000000      2
     322   323   336   320     1  180.0000000000    1.0041600000       2
     322   323   336   337     1  0.0000000000      0.0000000000       1
     322   323   336   338     1  180.0000000000    1.0041600000       2
     324   323   336   320     1  180.0000000000    1.0041600000       2
     324   323   336   337     1  0.0000000000      0.0000000000       1
     324   323   336   338     1  180.0000000000    1.0041600000       2
     4352  4357  4358  4359    1  180.0000000000    15.1670000000      2
     4352  4357  4358  4380    1  180.0000000000    15.1670000000      2
     4378  4357  4358  4359    1  180.0000000000    15.1670000000      2
     4378  4357  4358  4380    1  180.0000000000    15.1670000000      2
     4352  4357  4378  4377    1  180.0000000000    15.1670000000      2
     4352  4357  4378  4379    1  180.0000000000    15.1670000000      2
     4358  4357  4378  4377    1  180.0000000000    15.1670000000      2
     4358  4357  4378  4379    1  180.0000000000    15.1670000000      2
     4362  4372  4370  4368    1  0.0000000000      2.1756800000       3
     4373  4372  4370  4368    1  0.0000000000      0.5439200000       3
     4374  4372  4370  4368    1  0.0000000000      2.1756800000       3
     4362  4372  4370  4371    1  0.0000000000      0.5439200000       3
     4373  4372  4370  4371    1  0.0000000000      0.5020800000       3
     4374  4372  4370  4371    1  0.0000000000      0.5439200000       3
     4370  4372  4362  4361    1  0.0000000000      0.6508444444       3
     4370  4372  4362  4363    1  0.0000000000      0.5439200000       3
     4370  4372  4362  4364    1  0.0000000000      2.1756800000       3
     4362  4372  4374  4366    1  0.0000000000      0.6508444444       3
     4362  4372  4374  4375    1  0.0000000000      0.6508444444       3
     4362  4372  4374  4376    1  0.0000000000      0.6508444444       3
     4370  4372  4374  4375    1  0.0000000000      0.6508444444       3
     4370  4372  4374  4376    1  0.0000000000      0.6508444444       3
     4373  4372  4374  4366    1  0.0000000000      0.5439200000       3
     4373  4372  4374  4375    1  0.0000000000      0.5020800000       3
     4373  4372  4374  4376    1  0.0000000000      0.5020800000       3
     4362  4372  4370  329     1  0.0000000000      0.6508444444       3
     4373  4372  4370  329     1  0.0000000000      0.6508444444       3
     4374  4372  4370  329     1  0.0000000000      0.6508444444       3
     4357  4358  4359  4360    1  180.0000000000    15.1670000000      2
     4357  4358  4359  4361    1  180.0000000000    15.1670000000      2
     4380  4358  4359  4360    1  180.0000000000    15.1670000000      2
     4380  4358  4359  4361    1  180.0000000000    15.1670000000      2
     4357  4358  4380  4381    1  180.0000000000    4.1840000000       2
     4357  4358  4380  4415    1  180.0000000000    4.1840000000       2
     4359  4358  4380  4381    1  180.0000000000    4.1840000000       2
     4359  4358  4380  4415    1  180.0000000000    4.1840000000       2
     287   309   310   281     1  180.0000000000    15.1670000000      2
     287   309   310   311     1  180.0000000000    15.1670000000      2
     344   309   310   281     1  180.0000000000    15.1670000000      2
     344   309   310   311     1  180.0000000000    15.1670000000      2
     287   309   344   343     1  180.0000000000    15.1670000000      2
     287   309   344   345     1  180.0000000000    15.1670000000      2
     310   309   344   343     1  180.0000000000    15.1670000000      2
     310   309   344   345     1  180.0000000000    15.1670000000      2
     2449  2450  2452  2453    1  180.0000000000    15.1670000000      2
     2449  2450  2452  2482    1  180.0000000000    15.1670000000      2
     2451  2450  2452  2453    1  180.0000000000    15.1670000000      2
     2451  2450  2452  2482    1  180.0000000000    15.1670000000      2
     333   332   331   330     1  0.0000000000      0.0000000000       2
     334   332   331   330     1  0.0000000000      0.0000000000       2
     335   332   331   330     1  0.0000000000      0.0000000000       2
     4362  4364  4366  4367    1  0.0000000000      0.5439200000       3
     4362  4364  4366  4374    1  0.0000000000      2.1756800000       3
     4365  4364  4366  4367    1  0.0000000000      0.5020800000       3
     4365  4364  4366  4374    1  0.0000000000      0.5439200000       3
     4377  4364  4366  4367    1  0.0000000000      0.6508444444       3
     4377  4364  4366  4374    1  0.0000000000      0.6508444444       3
     4362  4364  4377  4361    1  180.0000000000    1.0041600000       2
     4362  4364  4377  4378    1  180.0000000000    1.0041600000       2
     4365  4364  4377  4361    1  0.0000000000      0.0000000000       1
     4365  4364  4377  4378    1  0.0000000000      0.0000000000       1
     4366  4364  4377  4361    1  180.0000000000    1.0041600000       2
     4366  4364  4377  4378    1  180.0000000000    1.0041600000       2
     4358  4359  4361  4362    1  180.0000000000    15.1670000000      2
     4358  4359  4361  4377    1  180.0000000000    15.1670000000      2
     4360  4359  4361  4362    1  180.0000000000    15.1670000000      2
     4360  4359  4361  4377    1  180.0000000000    15.1670000000      2
     4522  4523  4525  4526    1  0.0000000000      0.6508444444       3
     4522  4523  4525  4527    1  0.0000000000      0.6508444444       3
     4522  4523  4525  4552    1  0.0000000000      0.6508444444       3
     4524  4523  4525  4526    1  0.0000000000      0.6508444444       3
     4524  4523  4525  4527    1  0.0000000000      0.6508444444       3
     4524  4523  4525  4552    1  0.0000000000      0.6508444444       3
     4547  4523  4525  4526    1  0.0000000000      0.6508444444       3
     4547  4523  4525  4527    1  0.0000000000      0.6508444444       3
     4547  4523  4525  4552    1  0.0000000000      0.6508444444       3
     4522  4523  4547  4545    1  0.0000000000      0.6508444444       3
     4522  4523  4547  4548    1  0.0000000000      0.6508444444       3
     4522  4523  4547  4549    1  0.0000000000      0.6508444444       3
     4524  4523  4547  4545    1  0.0000000000      0.5439200000       3
     4524  4523  4547  4548    1  0.0000000000      0.5020800000       3
     4524  4523  4547  4549    1  0.0000000000      0.5439200000       3
     4525  4523  4547  4545    1  0.0000000000      2.1756800000       3
     4525  4523  4547  4548    1  0.0000000000      0.5439200000       3
     4525  4523  4547  4549    1  0.0000000000      2.1756800000       3
     4108  4138  4139  4104    1  180.0000000000    15.1670000000      2
     4108  4138  4139  4140    1  180.0000000000    15.1670000000      2
     4111  4138  4139  4104    1  180.0000000000    15.1670000000      2
     4111  4138  4139  4140    1  180.0000000000    15.1670000000      2
     314   316   318   319     1  0.0000000000      0.5439200000       3
     314   316   318   320     1  0.0000000000      2.1756800000       3
     314   316   318   340     1  0.0000000000      2.1756800000       3
     317   316   318   319     1  0.0000000000      0.5020800000       3
     317   316   318   320     1  0.0000000000      0.5439200000       3
     317   316   318   340     1  0.0000000000      0.5439200000       3
     343   316   318   319     1  0.0000000000      0.6508444444       3
     343   316   318   320     1  0.0000000000      0.6508444444       3
     343   316   318   340     1  0.0000000000      0.6508444444       3
     314   316   343   313     1  180.0000000000    1.0041600000       2
     314   316   343   344     1  180.0000000000    1.0041600000       2
     317   316   343   313     1  0.0000000000      0.0000000000       1
     317   316   343   344     1  0.0000000000      0.0000000000       1
     318   316   343   313     1  180.0000000000    1.0041600000       2
     318   316   343   344     1  180.0000000000    1.0041600000       2
     281   310   311   312     1  180.0000000000    15.1670000000      2
     281   310   311   313     1  180.0000000000    15.1670000000      2
     309   310   311   312     1  180.0000000000    15.1670000000      2
     309   310   311   313     1  180.0000000000    15.1670000000      2
     330   331   322   320     1  180.0000000000    15.1670000000      2
     322   331   332   333     1  0.0000000000      0.0000000000       2
     322   331   332   334     1  0.0000000000      0.0000000000       2
     322   331   332   335     1  0.0000000000      0.0000000000       2
     332   331   330   329     1  180.0000000000    15.1670000000      2
     322   331   330   4368    1  180.0000000000    15.1670000000      2
     332   331   330   4368    1  180.0000000000    15.1670000000      2
     320   336   338   314     1  0.0000000000      2.1756800000       3
     320   336   338   339     1  0.0000000000      0.5439200000       3
     320   336   338   340     1  0.0000000000      2.1756800000       3
     323   336   338   314     1  0.0000000000      0.6508444444       3
     323   336   338   339     1  0.0000000000      0.6508444444       3
     323   336   338   340     1  0.0000000000      0.6508444444       3
     337   336   338   314     1  0.0000000000      0.5439200000       3
     337   336   338   339     1  0.0000000000      0.5020800000       3
     337   336   338   340     1  0.0000000000      0.5439200000       3
     4525  4527  4529  4530    1  0.0000000000      0.5439200000       3
     4525  4527  4529  4531    1  0.0000000000      0.6508444444       3
     4525  4527  4529  4545    1  0.0000000000      2.1756800000       3
     4528  4527  4529  4530    1  0.0000000000      0.5020800000       3
     4528  4527  4529  4531    1  0.0000000000      0.6508444444       3
     4528  4527  4529  4545    1  0.0000000000      0.5439200000       3
     4549  4527  4529  4530    1  0.0000000000      0.5439200000       3
     4549  4527  4529  4531    1  0.0000000000      0.6508444444       3
     4549  4527  4529  4545    1  0.0000000000      2.1756800000       3
     4525  4527  4549  4547    1  0.0000000000      0.6508444444       3
     4525  4527  4549  4550    1  0.0000000000      0.6508444444       3
     4525  4527  4549  4551    1  0.0000000000      0.6508444444       3
     4528  4527  4549  4547    1  0.0000000000      0.5439200000       3
     4528  4527  4549  4550    1  0.0000000000      0.5020800000       3
     4528  4527  4549  4551    1  0.0000000000      0.5020800000       3
     4529  4527  4549  4547    1  0.0000000000      0.6508444444       3
     4529  4527  4549  4550    1  0.0000000000      0.6508444444       3
     4529  4527  4549  4551    1  0.0000000000      0.6508444444       3
     310   311   313   314     1  180.0000000000    15.1670000000      2
     310   311   313   343     1  180.0000000000    15.1670000000      2
     312   311   313   314     1  180.0000000000    15.1670000000      2
     312   311   313   343     1  180.0000000000    15.1670000000      2
     313   314   316   317     1  0.0000000000      0.6508444444       3
     313   314   316   318     1  0.0000000000      0.6508444444       3
     313   314   316   343     1  0.0000000000      0.6508444444       3
     315   314   316   317     1  0.0000000000      0.6508444444       3
     315   314   316   318     1  0.0000000000      0.6508444444       3
     315   314   316   343     1  0.0000000000      0.6508444444       3
     338   314   316   317     1  0.0000000000      0.6508444444       3
     338   314   316   318     1  0.0000000000      0.6508444444       3
     338   314   316   343     1  0.0000000000      0.6508444444       3
     313   314   338   336     1  0.0000000000      0.6508444444       3
     313   314   338   339     1  0.0000000000      0.6508444444       3
     313   314   338   340     1  0.0000000000      0.6508444444       3
     315   314   338   336     1  0.0000000000      0.5439200000       3
     315   314   338   339     1  0.0000000000      0.5020800000       3
     315   314   338   340     1  0.0000000000      0.5439200000       3
     316   314   338   336     1  0.0000000000      2.1756800000       3
     316   314   338   339     1  0.0000000000      0.5439200000       3
     316   314   338   340     1  0.0000000000      2.1756800000       3
     4523  4547  4549  4527    1  0.0000000000      0.6508444444       3
     4523  4547  4549  4550    1  0.0000000000      0.6508444444       3
     4523  4547  4549  4551    1  0.0000000000      0.6508444444       3
     4545  4547  4549  4527    1  0.0000000000      0.6508444444       3
     4545  4547  4549  4550    1  0.0000000000      0.6508444444       3
     4545  4547  4549  4551    1  0.0000000000      0.6508444444       3
     4548  4547  4549  4527    1  0.0000000000      0.5439200000       3
     4548  4547  4549  4550    1  0.0000000000      0.5020800000       3
     4548  4547  4549  4551    1  0.0000000000      0.5020800000       3
     4372  4374  4366  4368    1  0.0000000000      0.6508444444       3
     4366  4374  4372  4370    1  0.0000000000      0.6508444444       3
     313   343   344   309     1  180.0000000000    15.1670000000      2
     313   343   344   345     1  180.0000000000    15.1670000000      2
     316   343   344   309     1  180.0000000000    15.1670000000      2
     316   343   344   345     1  180.0000000000    15.1670000000      2
     4366  4368  4370  4371    1  0.0000000000      0.6508444444       3
     4366  4368  4370  4372    1  0.0000000000      0.6508444444       3
     4369  4368  4370  4371    1  0.0000000000      0.6508444444       3
     4366  4368  4370  329     1  0.0000000000      0.6508444444       3
     330   4368  4370  4371    1  0.0000000000      0.6508444444       3
     4361  4362  4364  4365    1  0.0000000000      0.6508444444       3
     4361  4362  4364  4366    1  0.0000000000      0.6508444444       3
     4361  4362  4364  4377    1  0.0000000000      0.6508444444       3
     4363  4362  4364  4365    1  0.0000000000      0.6508444444       3
     4363  4362  4364  4366    1  0.0000000000      0.6508444444       3
     4363  4362  4364  4377    1  0.0000000000      0.6508444444       3
     4372  4362  4364  4365    1  0.0000000000      0.6508444444       3
     4372  4362  4364  4366    1  0.0000000000      0.6508444444       3
     4372  4362  4364  4377    1  0.0000000000      0.6508444444       3
     4361  4362  4372  4373    1  0.0000000000      0.6508444444       3
     4361  4362  4372  4374    1  0.0000000000      0.6508444444       3
     4363  4362  4372  4373    1  0.0000000000      0.5020800000       3
     4363  4362  4372  4374    1  0.0000000000      0.5439200000       3
     4364  4362  4372  4373    1  0.0000000000      0.5439200000       3
     4364  4362  4372  4374    1  0.0000000000      2.1756800000       3
     278   277   281   282     1  0.0000000000      0.5439200000       3
     278   277   281   286     1  0.0000000000      0.6508444444       3
     278   277   281   310     1  0.0000000000      0.6508444444       3
     279   277   281   282     1  0.0000000000      0.5439200000       3
     279   277   281   286     1  0.0000000000      0.6508444444       3
     279   277   281   310     1  0.0000000000      0.6508444444       3
     280   277   281   282     1  0.0000000000      0.5439200000       3
     280   277   281   286     1  0.0000000000      0.6508444444       3
     280   277   281   310     1  0.0000000000      0.6508444444       3
     3843  3848  3849  3850    1  180.0000000000    15.1670000000      2
     3843  3848  3849  6300    1  180.0000000000    15.1670000000      2
     3843  3848  6302  6300    1  180.0000000000    1.0041600000       2
     3849  3848  6302  6300    1  180.0000000000    1.0041600000       2
     3843  3848  6302  6303    1  0.0000000000      0.0000000000       1
     3849  3848  6302  6303    1  0.0000000000      0.0000000000       1
     3843  3848  6302  6304    1  180.0000000000    1.0041600000       2
     3849  3848  6302  6304    1  180.0000000000    1.0041600000       2
     4359  4361  4362  4363    1  0.0000000000      0.0000000000       1
     4359  4361  4362  4364    1  180.0000000000    1.0041600000       2
     4359  4361  4362  4372    1  180.0000000000    1.0041600000       2
     4377  4361  4362  4363    1  0.0000000000      0.0000000000       1
     4377  4361  4362  4364    1  180.0000000000    1.0041600000       2
     4377  4361  4362  4372    1  180.0000000000    1.0041600000       2
     4359  4361  4377  4364    1  180.0000000000    15.1670000000      2
     4359  4361  4377  4378    1  180.0000000000    15.1670000000      2
     4362  4361  4377  4364    1  180.0000000000    15.1670000000      2
     4362  4361  4377  4378    1  180.0000000000    15.1670000000      2
     323   324   325   326     1  0.0000000000      0.0000000000       2
     323   324   325   327     1  0.0000000000      0.0000000000       2
     323   324   325   328     1  0.0000000000      0.0000000000       2
     323   324   329   330     1  180.0000000000    15.1670000000      2
     325   324   329   330     1  180.0000000000    15.1670000000      2
     329   324   323   336     1  180.0000000000    15.1670000000      2
     325   324   329   4370    1  180.0000000000    15.1670000000      2
     323   324   329   4370    1  180.0000000000    15.1670000000      2
     3845  3844  3843  3848    1  0.0000000000      0.0000000000       2
     3846  3844  3843  3848    1  0.0000000000      0.0000000000       2
     3847  3844  3843  3848    1  0.0000000000      0.0000000000       2
     3848  3843  3842  3855    1  180.0000000000    15.1670000000      2
     3842  3843  3844  3845    1  0.0000000000      0.0000000000       2
     3842  3843  3844  3846    1  0.0000000000      0.0000000000       2
     3842  3843  3844  3847    1  0.0000000000      0.0000000000       2
     3842  3843  3848  3849    1  180.0000000000    15.1670000000      2
     3844  3843  3848  3849    1  180.0000000000    15.1670000000      2
     3842  3843  3848  6302    1  180.0000000000    15.1670000000      2
     3844  3843  3848  6302    1  180.0000000000    15.1670000000      2
     320   322   323   324     1  180.0000000000    15.1670000000      2
     320   322   323   336     1  180.0000000000    15.1670000000      2
     331   322   323   324     1  180.0000000000    15.1670000000      2
     331   322   323   336     1  180.0000000000    15.1670000000      2
     320   322   331   332     1  180.0000000000    15.1670000000      2
     323   322   331   330     1  180.0000000000    15.1670000000      2
     323   322   331   332     1  180.0000000000    15.1670000000      2
     311   313   314   315     1  0.0000000000      0.0000000000       1
     311   313   314   316     1  180.0000000000    1.0041600000       2
     311   313   314   338     1  180.0000000000    1.0041600000       2
     343   313   314   315     1  0.0000000000      0.0000000000       1
     343   313   314   316     1  180.0000000000    1.0041600000       2
     343   313   314   338     1  180.0000000000    1.0041600000       2
     311   313   343   316     1  180.0000000000    15.1670000000      2
     311   313   343   344     1  180.0000000000    15.1670000000      2
     314   313   343   316     1  180.0000000000    15.1670000000      2
     314   313   343   344     1  180.0000000000    15.1670000000      2
     4361  4377  4378  4357    1  180.0000000000    15.1670000000      2
     4361  4377  4378  4379    1  180.0000000000    15.1670000000      2
     4364  4377  4378  4357    1  180.0000000000    15.1670000000      2
     4364  4377  4378  4379    1  180.0000000000    15.1670000000      2
     329   330   331   322     1  180.0000000000    15.1670000000      2
     331   330   329   4370    1  180.0000000000    15.1670000000      2
     329   330   4368  4366    1  180.0000000000    1.0041600000       2
     331   330   4368  4366    1  180.0000000000    1.0041600000       2
     329   330   4368  4369    1  0.0000000000      0.0000000000       1
     331   330   4368  4369    1  0.0000000000      0.0000000000       1
     329   330   4368  4370    1  180.0000000000    1.0041600000       2
     331   330   4368  4370    1  180.0000000000    1.0041600000       2
     4368  4366  4364  4362    1  0.0000000000      2.1756800000       3
     4368  4366  4364  4365    1  0.0000000000      0.5439200000       3
     4368  4366  4364  4377    1  0.0000000000      0.6508444444       3
     4364  4366  4368  4369    1  0.0000000000      0.5439200000       3
     4364  4366  4368  4370    1  0.0000000000      2.1756800000       3
     4367  4366  4368  4369    1  0.0000000000      0.5020800000       3
     4367  4366  4368  4370    1  0.0000000000      0.5439200000       3
     4374  4366  4368  4369    1  0.0000000000      0.5439200000       3
     4374  4366  4368  4370    1  0.0000000000      2.1756800000       3
     4364  4366  4374  4372    1  0.0000000000      0.6508444444       3
     4364  4366  4374  4375    1  0.0000000000      0.6508444444       3
     4364  4366  4374  4376    1  0.0000000000      0.6508444444       3
     4367  4366  4374  4372    1  0.0000000000      0.5439200000       3
     4367  4366  4374  4375    1  0.0000000000      0.5020800000       3
     4367  4366  4374  4376    1  0.0000000000      0.5020800000       3
     4368  4366  4374  4375    1  0.0000000000      0.6508444444       3
     4368  4366  4374  4376    1  0.0000000000      0.6508444444       3
     4364  4366  4368  330     1  0.0000000000      0.6508444444       3
     4367  4366  4368  330     1  0.0000000000      0.6508444444       3
     4374  4366  4368  330     1  0.0000000000      0.6508444444       3
     314   338   340   318     1  0.0000000000      0.6508444444       3
     314   338   340   341     1  0.0000000000      0.6508444444       3
     314   338   340   342     1  0.0000000000      0.6508444444       3
     336   338   340   318     1  0.0000000000      0.6508444444       3
     336   338   340   341     1  0.0000000000      0.6508444444       3
     336   338   340   342     1  0.0000000000      0.6508444444       3
     339   338   340   318     1  0.0000000000      0.5439200000       3
     339   338   340   341     1  0.0000000000      0.5020800000       3
     339   338   340   342     1  0.0000000000      0.5020800000       3
     4644  4642  4640  4638    1  0.0000000000      2.1756800000       3
     4644  4642  4640  4641    1  0.0000000000      0.5439200000       3
     4644  4642  4640  4653    1  0.0000000000      0.6508444444       3
     4640  4642  4644  4645    1  0.0000000000      0.5439200000       3
     4640  4642  4644  4646    1  0.0000000000      2.1756800000       3
     4643  4642  4644  4645    1  0.0000000000      0.5020800000       3
     4643  4642  4644  4646    1  0.0000000000      0.5439200000       3
     4650  4642  4644  4645    1  0.0000000000      0.5439200000       3
     4650  4642  4644  4646    1  0.0000000000      2.1756800000       3
     4640  4642  4650  4648    1  0.0000000000      0.6508444444       3
     4640  4642  4650  4651    1  0.0000000000      0.6508444444       3
     4640  4642  4650  4652    1  0.0000000000      0.6508444444       3
     4643  4642  4650  4648    1  0.0000000000      0.5439200000       3
     4643  4642  4650  4651    1  0.0000000000      0.5020800000       3
     4643  4642  4650  4652    1  0.0000000000      0.5020800000       3
     4644  4642  4650  4651    1  0.0000000000      0.6508444444       3
     4644  4642  4650  4652    1  0.0000000000      0.6508444444       3
     4640  4642  4644  6264    1  0.0000000000      0.6508444444       3
     4643  4642  4644  6264    1  0.0000000000      0.6508444444       3
     4650  4642  4644  6264    1  0.0000000000      0.6508444444       3
     4642  4644  4646  4647    1  0.0000000000      0.6508444444       3
     4642  4644  4646  4648    1  0.0000000000      0.6508444444       3
     4645  4644  4646  4647    1  0.0000000000      0.6508444444       3
     6264  4644  4646  4647    1  0.0000000000      0.6508444444       3
     6264  4644  4646  6263    1  0.0000000000      0.6508444444       3
     4642  4644  4646  6263    1  0.0000000000      0.6508444444       3
     4648  4646  4644  4645    1  0.0000000000      0.6508444444       3
     4648  4646  4644  6264    1  0.0000000000      0.6508444444       3
     6263  4646  4644  4645    1  0.0000000000      0.6508444444       3
     4648  4650  4642  4644    1  0.0000000000      0.6508444444       3
     4642  4650  4648  4646    1  0.0000000000      0.6508444444       3
     6221  6222  6224  6225    1  180.0000000000    15.1670000000      2
     6221  6222  6224  6240    1  180.0000000000    15.1670000000      2
     6223  6222  6224  6225    1  180.0000000000    15.1670000000      2
     6223  6222  6224  6240    1  180.0000000000    15.1670000000      2
     6221  6243  6244  6215    1  180.0000000000    15.1670000000      2
     6221  6243  6244  6245    1  180.0000000000    15.1670000000      2
     6278  6243  6244  6215    1  180.0000000000    15.1670000000      2
     6278  6243  6244  6245    1  180.0000000000    15.1670000000      2
     6221  6243  6278  6277    1  180.0000000000    15.1670000000      2
     6221  6243  6278  6279    1  180.0000000000    15.1670000000      2
     6244  6243  6278  6277    1  180.0000000000    15.1670000000      2
     6244  6243  6278  6279    1  180.0000000000    15.1670000000      2
     6263  6258  6257  6270    1  180.0000000000    15.1670000000      2
     6257  6258  6259  6260    1  0.0000000000      0.0000000000       2
     6257  6258  6259  6261    1  0.0000000000      0.0000000000       2
     6257  6258  6259  6262    1  0.0000000000      0.0000000000       2
     6257  6258  6263  6264    1  180.0000000000    15.1670000000      2
     6259  6258  6263  6264    1  180.0000000000    15.1670000000      2
     6257  6258  6263  4646    1  180.0000000000    15.1670000000      2
     6259  6258  6263  4646    1  180.0000000000    15.1670000000      2
     6258  6263  6264  6265    1  180.0000000000    15.1670000000      2
     6258  6263  6264  4644    1  180.0000000000    15.1670000000      2
     6258  6263  4646  4644    1  180.0000000000    1.0041600000       2
     6264  6263  4646  4644    1  180.0000000000    1.0041600000       2
     6258  6263  4646  4647    1  0.0000000000      0.0000000000       1
     6264  6263  4646  4647    1  0.0000000000      0.0000000000       1
     6258  6263  4646  4648    1  180.0000000000    1.0041600000       2
     6264  6263  4646  4648    1  180.0000000000    1.0041600000       2
     6263  6264  6265  6256    1  180.0000000000    15.1670000000      2
     4644  6264  6263  4646    1  180.0000000000    15.1670000000      2
     6263  6264  4644  4642    1  180.0000000000    1.0041600000       2
     6265  6264  4644  4642    1  180.0000000000    1.0041600000       2
     6263  6264  4644  4645    1  0.0000000000      0.0000000000       1
     6265  6264  4644  4645    1  0.0000000000      0.0000000000       1
     6263  6264  4644  4646    1  180.0000000000    1.0041600000       2
     6265  6264  4644  4646    1  180.0000000000    1.0041600000       2
     6265  6264  6263  4646    1  180.0000000000    15.1670000000      2
     6215  6244  6245  6246    1  180.0000000000    15.1670000000      2
     6215  6244  6245  6247    1  180.0000000000    15.1670000000      2
     6243  6244  6245  6246    1  180.0000000000    15.1670000000      2
     6243  6244  6245  6247    1  180.0000000000    15.1670000000      2
     6256  6257  6258  6259    1  180.0000000000    15.1670000000      2
     6256  6257  6258  6263    1  180.0000000000    15.1670000000      2
     6270  6257  6258  6259    1  180.0000000000    15.1670000000      2
     6256  6257  6270  6254    1  180.0000000000    1.0041600000       2
     6256  6257  6270  6271    1  0.0000000000      0.0000000000       1
     6256  6257  6270  6272    1  180.0000000000    1.0041600000       2
     6258  6257  6270  6254    1  180.0000000000    1.0041600000       2
     6258  6257  6270  6271    1  0.0000000000      0.0000000000       1
     6258  6257  6270  6272    1  180.0000000000    1.0041600000       2
     6264  6265  6256  6254    1  180.0000000000    15.1670000000      2
     6266  6265  6264  6263    1  180.0000000000    15.1670000000      2
     6256  6265  6266  6267    1  0.0000000000      0.0000000000       2
     6256  6265  6266  6268    1  0.0000000000      0.0000000000       2
     6256  6265  6266  6269    1  0.0000000000      0.0000000000       2
     6256  6265  6264  4644    1  180.0000000000    15.1670000000      2
     6266  6265  6264  4644    1  180.0000000000    15.1670000000      2
     6267  6266  6265  6264    1  0.0000000000      0.0000000000       2
     6268  6266  6265  6264    1  0.0000000000      0.0000000000       2
     6269  6266  6265  6264    1  0.0000000000      0.0000000000       2
     6254  6270  6272  6248    1  0.0000000000      2.1756800000       3
     6254  6270  6272  6273    1  0.0000000000      0.5439200000       3
     6254  6270  6272  6274    1  0.0000000000      2.1756800000       3
     6257  6270  6272  6248    1  0.0000000000      0.6508444444       3
     6257  6270  6272  6273    1  0.0000000000      0.6508444444       3
     6257  6270  6272  6274    1  0.0000000000      0.6508444444       3
     6271  6270  6272  6248    1  0.0000000000      0.5439200000       3
     6271  6270  6272  6273    1  0.0000000000      0.5020800000       3
     6271  6270  6272  6274    1  0.0000000000      0.5439200000       3
     4646  4648  4638  4637    1  0.0000000000      0.6508444444       3
     4646  4648  4638  4639    1  0.0000000000      0.5439200000       3
     4646  4648  4638  4640    1  0.0000000000      2.1756800000       3
     4638  4648  4646  4644    1  0.0000000000      2.1756800000       3
     4649  4648  4646  4644    1  0.0000000000      0.5439200000       3
     4650  4648  4646  4644    1  0.0000000000      2.1756800000       3
     4638  4648  4646  4647    1  0.0000000000      0.5439200000       3
     4649  4648  4646  4647    1  0.0000000000      0.5020800000       3
     4650  4648  4646  4647    1  0.0000000000      0.5439200000       3
     4638  4648  4650  4642    1  0.0000000000      0.6508444444       3
     4638  4648  4650  4651    1  0.0000000000      0.6508444444       3
     4638  4648  4650  4652    1  0.0000000000      0.6508444444       3
     4646  4648  4650  4651    1  0.0000000000      0.6508444444       3
     4646  4648  4650  4652    1  0.0000000000      0.6508444444       3
     4649  4648  4650  4642    1  0.0000000000      0.5439200000       3
     4649  4648  4650  4651    1  0.0000000000      0.5020800000       3
     4649  4648  4650  4652    1  0.0000000000      0.5020800000       3
     4638  4648  4646  6263    1  0.0000000000      0.6508444444       3
     4649  4648  4646  6263    1  0.0000000000      0.6508444444       3
     4650  4648  4646  6263    1  0.0000000000      0.6508444444       3
     6254  6256  6257  6258    1  180.0000000000    15.1670000000      2
     6254  6256  6257  6270    1  180.0000000000    15.1670000000      2
     6265  6256  6257  6258    1  180.0000000000    15.1670000000      2
     6265  6256  6257  6270    1  180.0000000000    15.1670000000      2
     6254  6256  6265  6266    1  180.0000000000    15.1670000000      2
     6257  6256  6265  6264    1  180.0000000000    15.1670000000      2
     6257  6256  6265  6266    1  180.0000000000    15.1670000000      2
     6252  6254  6256  6257    1  180.0000000000    1.0041600000       2
     6252  6254  6256  6265    1  180.0000000000    1.0041600000       2
     6255  6254  6256  6257    1  0.0000000000      0.0000000000       1
     6255  6254  6256  6265    1  0.0000000000      0.0000000000       1
     6270  6254  6256  6257    1  180.0000000000    1.0041600000       2
     6270  6254  6256  6265    1  180.0000000000    1.0041600000       2
     6252  6254  6270  6257    1  0.0000000000      0.6508444444       3
     6252  6254  6270  6271    1  0.0000000000      0.6508444444       3
     6252  6254  6270  6272    1  0.0000000000      0.6508444444       3
     6255  6254  6270  6257    1  0.0000000000      0.6508444444       3
     6255  6254  6270  6271    1  0.0000000000      0.6508444444       3
     6255  6254  6270  6272    1  0.0000000000      0.6508444444       3
     6256  6254  6270  6257    1  0.0000000000      0.6508444444       3
     6256  6254  6270  6271    1  0.0000000000      0.6508444444       3
     6256  6254  6270  6272    1  0.0000000000      0.6508444444       3
     6260  6259  6258  6263    1  0.0000000000      0.0000000000       2
     6261  6259  6258  6263    1  0.0000000000      0.0000000000       2
     6262  6259  6258  6263    1  0.0000000000      0.0000000000       2
     6250  6252  6254  6255    1  0.0000000000      0.5439200000       3
     6250  6252  6254  6256    1  0.0000000000      0.6508444444       3
     6250  6252  6254  6270    1  0.0000000000      2.1756800000       3
     6253  6252  6254  6255    1  0.0000000000      0.5020800000       3
     6253  6252  6254  6256    1  0.0000000000      0.6508444444       3
     6253  6252  6254  6270    1  0.0000000000      0.5439200000       3
     6274  6252  6254  6255    1  0.0000000000      0.5439200000       3
     6274  6252  6254  6256    1  0.0000000000      0.6508444444       3
     6274  6252  6254  6270    1  0.0000000000      2.1756800000       3
     6250  6252  6274  6272    1  0.0000000000      0.6508444444       3
     6250  6252  6274  6275    1  0.0000000000      0.6508444444       3
     6250  6252  6274  6276    1  0.0000000000      0.6508444444       3
     6253  6252  6274  6272    1  0.0000000000      0.5439200000       3
     6253  6252  6274  6275    1  0.0000000000      0.5020800000       3
     6253  6252  6274  6276    1  0.0000000000      0.5020800000       3
     6254  6252  6274  6272    1  0.0000000000      0.6508444444       3
     6254  6252  6274  6275    1  0.0000000000      0.6508444444       3
     6254  6252  6274  6276    1  0.0000000000      0.6508444444       3
     4490  4519  4520  4521    1  180.0000000000    15.1670000000      2
     4490  4519  4520  4522    1  180.0000000000    15.1670000000      2
     4518  4519  4520  4521    1  180.0000000000    15.1670000000      2
     4518  4519  4520  4522    1  180.0000000000    15.1670000000      2
     6247  6277  6278  6243    1  180.0000000000    15.1670000000      2
     6247  6277  6278  6279    1  180.0000000000    15.1670000000      2
     6250  6277  6278  6243    1  180.0000000000    15.1670000000      2
     6250  6277  6278  6279    1  180.0000000000    15.1670000000      2
     6220  6221  6222  6223    1  180.0000000000    15.1670000000      2
     6220  6221  6222  6224    1  180.0000000000    15.1670000000      2
     6243  6221  6222  6223    1  180.0000000000    15.1670000000      2
     6243  6221  6222  6224    1  180.0000000000    15.1670000000      2
     6220  6221  6243  6244    1  180.0000000000    4.1840000000       2
     6220  6221  6243  6278    1  180.0000000000    4.1840000000       2
     6222  6221  6243  6244    1  180.0000000000    4.1840000000       2
     6222  6221  6243  6278    1  180.0000000000    4.1840000000       2
     4495  4496  4497  4498    1  180.0000000000    15.1670000000      2
     4495  4496  4497  4499    1  180.0000000000    15.1670000000      2
     4518  4496  4497  4498    1  180.0000000000    15.1670000000      2
     4518  4496  4497  4499    1  180.0000000000    15.1670000000      2
     4495  4496  4518  4519    1  180.0000000000    4.1840000000       2
     4495  4496  4518  4553    1  180.0000000000    4.1840000000       2
     4497  4496  4518  4519    1  180.0000000000    4.1840000000       2
     4497  4496  4518  4553    1  180.0000000000    4.1840000000       2
     4638  4640  4642  4643    1  0.0000000000      0.5439200000       3
     4638  4640  4642  4650    1  0.0000000000      2.1756800000       3
     4641  4640  4642  4643    1  0.0000000000      0.5020800000       3
     4641  4640  4642  4650    1  0.0000000000      0.5439200000       3
     4653  4640  4642  4643    1  0.0000000000      0.6508444444       3
     4653  4640  4642  4650    1  0.0000000000      0.6508444444       3
     4638  4640  4653  4637    1  180.0000000000    1.0041600000       2
     4638  4640  4653  4654    1  180.0000000000    1.0041600000       2
     4641  4640  4653  4637    1  0.0000000000      0.0000000000       1
     4641  4640  4653  4654    1  0.0000000000      0.0000000000       1
     4642  4640  4653  4637    1  180.0000000000    1.0041600000       2
     4642  4640  4653  4654    1  180.0000000000    1.0041600000       2
     6222  6224  6225  6226    1  0.0000000000      0.0000000000       1
     6222  6224  6225  6227    1  180.0000000000    1.0041600000       2
     6222  6224  6225  6235    1  180.0000000000    1.0041600000       2
     6240  6224  6225  6226    1  0.0000000000      0.0000000000       1
     6240  6224  6225  6227    1  180.0000000000    1.0041600000       2
     6240  6224  6225  6235    1  180.0000000000    1.0041600000       2
     6222  6224  6240  6227    1  180.0000000000    15.1670000000      2
     6222  6224  6240  6241    1  180.0000000000    15.1670000000      2
     6225  6224  6240  6227    1  180.0000000000    15.1670000000      2
     6225  6224  6240  6241    1  180.0000000000    15.1670000000      2
     4637  4638  4640  4641    1  0.0000000000      0.6508444444       3
     4637  4638  4640  4642    1  0.0000000000      0.6508444444       3
     4637  4638  4640  4653    1  0.0000000000      0.6508444444       3
     4639  4638  4640  4641    1  0.0000000000      0.6508444444       3
     4639  4638  4640  4642    1  0.0000000000      0.6508444444       3
     4639  4638  4640  4653    1  0.0000000000      0.6508444444       3
     4648  4638  4640  4641    1  0.0000000000      0.6508444444       3
     4648  4638  4640  4642    1  0.0000000000      0.6508444444       3
     4648  4638  4640  4653    1  0.0000000000      0.6508444444       3
     4637  4638  4648  4649    1  0.0000000000      0.6508444444       3
     4637  4638  4648  4650    1  0.0000000000      0.6508444444       3
     4639  4638  4648  4649    1  0.0000000000      0.5020800000       3
     4639  4638  4648  4650    1  0.0000000000      0.5439200000       3
     4640  4638  4648  4649    1  0.0000000000      0.5439200000       3
     4640  4638  4648  4650    1  0.0000000000      2.1756800000       3
     4496  4518  4519  4490    1  180.0000000000    15.1670000000      2
     4496  4518  4519  4520    1  180.0000000000    15.1670000000      2
     4553  4518  4519  4490    1  180.0000000000    15.1670000000      2
     4553  4518  4519  4520    1  180.0000000000    15.1670000000      2
     4496  4518  4553  4552    1  180.0000000000    15.1670000000      2
     4496  4518  4553  4554    1  180.0000000000    15.1670000000      2
     4519  4518  4553  4552    1  180.0000000000    15.1670000000      2
     4519  4518  4553  4554    1  180.0000000000    15.1670000000      2
     4519  4520  4522  4523    1  180.0000000000    15.1670000000      2
     4519  4520  4522  4552    1  180.0000000000    15.1670000000      2
     4521  4520  4522  4523    1  180.0000000000    15.1670000000      2
     4521  4520  4522  4552    1  180.0000000000    15.1670000000      2
     6248  6250  6252  6253    1  0.0000000000      0.5439200000       3
     6248  6250  6252  6254    1  0.0000000000      2.1756800000       3
     6248  6250  6252  6274    1  0.0000000000      2.1756800000       3
     6251  6250  6252  6253    1  0.0000000000      0.5020800000       3
     6251  6250  6252  6254    1  0.0000000000      0.5439200000       3
     6251  6250  6252  6274    1  0.0000000000      0.5439200000       3
     6277  6250  6252  6253    1  0.0000000000      0.6508444444       3
     6277  6250  6252  6254    1  0.0000000000      0.6508444444       3
     6277  6250  6252  6274    1  0.0000000000      0.6508444444       3
     6248  6250  6277  6247    1  180.0000000000    1.0041600000       2
     6248  6250  6277  6278    1  180.0000000000    1.0041600000       2
     6251  6250  6277  6247    1  0.0000000000      0.0000000000       1
     6251  6250  6277  6278    1  0.0000000000      0.0000000000       1
     6252  6250  6277  6247    1  180.0000000000    1.0041600000       2
     6252  6250  6277  6278    1  180.0000000000    1.0041600000       2
     139   143   144   145     1  0.0000000000      0.5439200000       3
     139   143   144   146     1  0.0000000000      0.5439200000       3
     139   143   144   147     1  0.0000000000      0.5439200000       3
     148   143   144   145     1  0.0000000000      0.6508444444       3
     148   143   144   146     1  0.0000000000      0.6508444444       3
     148   143   144   147     1  0.0000000000      0.6508444444       3
     172   143   144   145     1  0.0000000000      0.6508444444       3
     172   143   144   146     1  0.0000000000      0.6508444444       3
     172   143   144   147     1  0.0000000000      0.6508444444       3
     139   143   148   149     1  0.0000000000      0.0000000000       2
     139   143   148   169     1  180.0000000000    1.0041600000       2
     144   143   148   149     1  0.0000000000      0.0000000000       2
     144   143   148   169     1  180.0000000000    1.0041600000       2
     172   143   148   149     1  0.0000000000      0.0000000000       2
     172   143   148   169     1  180.0000000000    0.0000000000       2
     139   143   172   171     1  0.0000000000      0.0000000000       2
     139   143   172   173     1  180.0000000000    1.0041600000       2
     144   143   172   171     1  0.0000000000      0.0000000000       2
     144   143   172   173     1  180.0000000000    1.0041600000       2
     148   143   172   171     1  0.0000000000      0.0000000000       2
     148   143   172   173     1  180.0000000000    0.0000000000       2
     4486  4490  4491  4492    1  0.0000000000      0.5439200000       3
     4486  4490  4491  4493    1  0.0000000000      0.5439200000       3
     4486  4490  4491  4494    1  0.0000000000      0.5439200000       3
     4495  4490  4491  4492    1  0.0000000000      0.6508444444       3
     4495  4490  4491  4493    1  0.0000000000      0.6508444444       3
     4495  4490  4491  4494    1  0.0000000000      0.6508444444       3
     4519  4490  4491  4492    1  0.0000000000      0.6508444444       3
     4519  4490  4491  4493    1  0.0000000000      0.6508444444       3
     4519  4490  4491  4494    1  0.0000000000      0.6508444444       3
     4486  4490  4495  4496    1  0.0000000000      0.0000000000       2
     4486  4490  4495  4516    1  180.0000000000    1.0041600000       2
     4491  4490  4495  4496    1  0.0000000000      0.0000000000       2
     4491  4490  4495  4516    1  180.0000000000    1.0041600000       2
     4519  4490  4495  4496    1  0.0000000000      0.0000000000       2
     4519  4490  4495  4516    1  180.0000000000    0.0000000000       2
     4486  4490  4519  4518    1  0.0000000000      0.0000000000       2
     4486  4490  4519  4520    1  180.0000000000    1.0041600000       2
     4491  4490  4519  4518    1  0.0000000000      0.0000000000       2
     4491  4490  4519  4520    1  180.0000000000    1.0041600000       2
     4495  4490  4519  4518    1  0.0000000000      0.0000000000       2
     4495  4490  4519  4520    1  180.0000000000    0.0000000000       2
     6224  6225  6227  6228    1  0.0000000000      0.6508444444       3
     6224  6225  6227  6229    1  0.0000000000      0.6508444444       3
     6224  6225  6227  6240    1  0.0000000000      0.6508444444       3
     6226  6225  6227  6228    1  0.0000000000      0.6508444444       3
     6226  6225  6227  6229    1  0.0000000000      0.6508444444       3
     6226  6225  6227  6240    1  0.0000000000      0.6508444444       3
     6235  6225  6227  6228    1  0.0000000000      0.6508444444       3
     6235  6225  6227  6229    1  0.0000000000      0.6508444444       3
     6235  6225  6227  6240    1  0.0000000000      0.6508444444       3
     6224  6225  6235  6236    1  0.0000000000      0.6508444444       3
     6224  6225  6235  6237    1  0.0000000000      0.6508444444       3
     6226  6225  6235  6236    1  0.0000000000      0.5020800000       3
     6226  6225  6235  6237    1  0.0000000000      0.5439200000       3
     6227  6225  6235  6236    1  0.0000000000      0.5439200000       3
     6227  6225  6235  6237    1  0.0000000000      2.1756800000       3
     4490  4495  4496  4497    1  180.0000000000    15.1670000000      2
     4490  4495  4496  4518    1  180.0000000000    15.1670000000      2
     4516  4495  4496  4497    1  180.0000000000    15.1670000000      2
     4516  4495  4496  4518    1  180.0000000000    15.1670000000      2
     4490  4495  4516  4515    1  180.0000000000    15.1670000000      2
     4490  4495  4516  4517    1  180.0000000000    15.1670000000      2
     4496  4495  4516  4515    1  180.0000000000    15.1670000000      2
     4496  4495  4516  4517    1  180.0000000000    15.1670000000      2
     6215  6220  6221  6222    1  180.0000000000    15.1670000000      2
     6215  6220  6221  6243    1  180.0000000000    15.1670000000      2
     6241  6220  6221  6222    1  180.0000000000    15.1670000000      2
     6241  6220  6221  6243    1  180.0000000000    15.1670000000      2
     6215  6220  6241  6240    1  180.0000000000    15.1670000000      2
     6215  6220  6241  6242    1  180.0000000000    15.1670000000      2
     6221  6220  6241  6240    1  180.0000000000    15.1670000000      2
     6221  6220  6241  6242    1  180.0000000000    15.1670000000      2
     6211  6215  6216  6217    1  0.0000000000      0.5439200000       3
     6211  6215  6216  6218    1  0.0000000000      0.5439200000       3
     6211  6215  6216  6219    1  0.0000000000      0.5439200000       3
     6220  6215  6216  6217    1  0.0000000000      0.6508444444       3
     6220  6215  6216  6218    1  0.0000000000      0.6508444444       3
     6220  6215  6216  6219    1  0.0000000000      0.6508444444       3
     6244  6215  6216  6217    1  0.0000000000      0.6508444444       3
     6244  6215  6216  6218    1  0.0000000000      0.6508444444       3
     6244  6215  6216  6219    1  0.0000000000      0.6508444444       3
     6211  6215  6220  6221    1  0.0000000000      0.0000000000       2
     6211  6215  6220  6241    1  180.0000000000    1.0041600000       2
     6216  6215  6220  6221    1  0.0000000000      0.0000000000       2
     6216  6215  6220  6241    1  180.0000000000    1.0041600000       2
     6244  6215  6220  6221    1  0.0000000000      0.0000000000       2
     6244  6215  6220  6241    1  180.0000000000    0.0000000000       2
     6211  6215  6244  6243    1  0.0000000000      0.0000000000       2
     6211  6215  6244  6245    1  180.0000000000    1.0041600000       2
     6216  6215  6244  6243    1  0.0000000000      0.0000000000       2
     6216  6215  6244  6245    1  180.0000000000    1.0041600000       2
     6220  6215  6244  6243    1  0.0000000000      0.0000000000       2
     6220  6215  6244  6245    1  180.0000000000    0.0000000000       2
     4520  4522  4523  4524    1  0.0000000000      0.0000000000       1
     4520  4522  4523  4525    1  180.0000000000    1.0041600000       2
     4520  4522  4523  4547    1  180.0000000000    1.0041600000       2
     4552  4522  4523  4524    1  0.0000000000      0.0000000000       1
     4552  4522  4523  4525    1  180.0000000000    1.0041600000       2
     4552  4522  4523  4547    1  180.0000000000    1.0041600000       2
     4520  4522  4552  4525    1  180.0000000000    15.1670000000      2
     4520  4522  4552  4553    1  180.0000000000    15.1670000000      2
     4523  4522  4552  4525    1  180.0000000000    15.1670000000      2
     4523  4522  4552  4553    1  180.0000000000    15.1670000000      2
     6244  6245  6247  6248    1  180.0000000000    15.1670000000      2
     6244  6245  6247  6277    1  180.0000000000    15.1670000000      2
     6246  6245  6247  6248    1  180.0000000000    15.1670000000      2
     6246  6245  6247  6277    1  180.0000000000    15.1670000000      2
     4542  4541  4540  4539    1  0.0000000000      0.0000000000       2
     4543  4541  4540  4539    1  0.0000000000      0.0000000000       2
     4544  4541  4540  4539    1  0.0000000000      0.0000000000       2
     6212  6211  6215  6216    1  0.0000000000      0.5439200000       3
     6212  6211  6215  6220    1  0.0000000000      0.6508444444       3
     6212  6211  6215  6244    1  0.0000000000      0.6508444444       3
     6213  6211  6215  6216    1  0.0000000000      0.5439200000       3
     6213  6211  6215  6220    1  0.0000000000      0.6508444444       3
     6213  6211  6215  6244    1  0.0000000000      0.6508444444       3
     6214  6211  6215  6216    1  0.0000000000      0.5439200000       3
     6214  6211  6215  6220    1  0.0000000000      0.6508444444       3
     6214  6211  6215  6244    1  0.0000000000      0.6508444444       3
     6248  6272  6274  6252    1  0.0000000000      0.6508444444       3
     6248  6272  6274  6275    1  0.0000000000      0.6508444444       3
     6248  6272  6274  6276    1  0.0000000000      0.6508444444       3
     6270  6272  6274  6252    1  0.0000000000      0.6508444444       3
     6270  6272  6274  6275    1  0.0000000000      0.6508444444       3
     6270  6272  6274  6276    1  0.0000000000      0.6508444444       3
     6273  6272  6274  6252    1  0.0000000000      0.5439200000       3
     6273  6272  6274  6275    1  0.0000000000      0.5020800000       3
     6273  6272  6274  6276    1  0.0000000000      0.5020800000       3
     6245  6247  6248  6249    1  0.0000000000      0.0000000000       1
     6245  6247  6248  6250    1  180.0000000000    1.0041600000       2
     6245  6247  6248  6272    1  180.0000000000    1.0041600000       2
     6277  6247  6248  6249    1  0.0000000000      0.0000000000       1
     6277  6247  6248  6250    1  180.0000000000    1.0041600000       2
     6277  6247  6248  6272    1  180.0000000000    1.0041600000       2
     6245  6247  6277  6250    1  180.0000000000    15.1670000000      2
     6245  6247  6277  6278    1  180.0000000000    15.1670000000      2
     6248  6247  6277  6250    1  180.0000000000    15.1670000000      2
     6248  6247  6277  6278    1  180.0000000000    15.1670000000      2
     4539  4540  4531  4529    1  180.0000000000    15.1670000000      2
     4531  4540  4541  4542    1  0.0000000000      0.0000000000       2
     4531  4540  4541  4543    1  0.0000000000      0.0000000000       2
     4531  4540  4541  4544    1  0.0000000000      0.0000000000       2
     4541  4540  4539  4538    1  180.0000000000    15.1670000000      2
     4531  4540  4539  3404    1  180.0000000000    15.1670000000      2
     4541  4540  4539  3404    1  180.0000000000    15.1670000000      2
     4499  4515  4516  4495    1  180.0000000000    15.1670000000      2
     4499  4515  4516  4517    1  180.0000000000    15.1670000000      2
     4502  4515  4516  4495    1  180.0000000000    15.1670000000      2
     4502  4515  4516  4517    1  180.0000000000    15.1670000000      2
     152   168   169   148     1  180.0000000000    15.1670000000      2
     152   168   169   170     1  180.0000000000    15.1670000000      2
     155   168   169   148     1  180.0000000000    15.1670000000      2
     155   168   169   170     1  180.0000000000    15.1670000000      2
     153   155   157   158     1  0.0000000000      0.5439200000       3
     153   155   157   165     1  0.0000000000      2.1756800000       3
     156   155   157   158     1  0.0000000000      0.5020800000       3
     156   155   157   165     1  0.0000000000      0.5439200000       3
     168   155   157   158     1  0.0000000000      0.6508444444       3
     168   155   157   165     1  0.0000000000      0.6508444444       3
     153   155   168   152     1  180.0000000000    1.0041600000       2
     153   155   168   169     1  180.0000000000    1.0041600000       2
     156   155   168   152     1  0.0000000000      0.0000000000       1
     156   155   168   169     1  0.0000000000      0.0000000000       1
     157   155   168   152     1  180.0000000000    1.0041600000       2
     157   155   168   169     1  180.0000000000    1.0041600000       2
     4106  4108  4109  4110    1  0.0000000000      0.0000000000       1
     4106  4108  4109  4111    1  180.0000000000    1.0041600000       2
     4106  4108  4109  4133    1  180.0000000000    1.0041600000       2
     4138  4108  4109  4110    1  0.0000000000      0.0000000000       1
     4138  4108  4109  4111    1  180.0000000000    1.0041600000       2
     4138  4108  4109  4133    1  180.0000000000    1.0041600000       2
     4106  4108  4138  4111    1  180.0000000000    15.1670000000      2
     4106  4108  4138  4139    1  180.0000000000    15.1670000000      2
     4109  4108  4138  4111    1  180.0000000000    15.1670000000      2
     4109  4108  4138  4139    1  180.0000000000    15.1670000000      2
     6151  6152  6153  6154    1  180.0000000000    15.1670000000      2
     6151  6152  6153  6155    1  180.0000000000    15.1670000000      2
     6174  6152  6153  6154    1  180.0000000000    15.1670000000      2
     6174  6152  6153  6155    1  180.0000000000    15.1670000000      2
     6151  6152  6174  6175    1  180.0000000000    4.1840000000       2
     6151  6152  6174  6209    1  180.0000000000    4.1840000000       2
     6153  6152  6174  6175    1  180.0000000000    4.1840000000       2
     6153  6152  6174  6209    1  180.0000000000    4.1840000000       2
     159   157   155   153     1  0.0000000000      2.1756800000       3
     159   157   155   156     1  0.0000000000      0.5439200000       3
     159   157   155   168     1  0.0000000000      0.6508444444       3
     155   157   159   160     1  0.0000000000      0.5439200000       3
     155   157   159   161     1  0.0000000000      2.1756800000       3
     158   157   159   160     1  0.0000000000      0.5020800000       3
     158   157   159   161     1  0.0000000000      0.5439200000       3
     165   157   159   160     1  0.0000000000      0.5439200000       3
     165   157   159   161     1  0.0000000000      2.1756800000       3
     155   157   165   163     1  0.0000000000      0.6508444444       3
     155   157   165   166     1  0.0000000000      0.6508444444       3
     155   157   165   167     1  0.0000000000      0.6508444444       3
     158   157   165   163     1  0.0000000000      0.5439200000       3
     158   157   165   166     1  0.0000000000      0.5020800000       3
     158   157   165   167     1  0.0000000000      0.5020800000       3
     159   157   165   166     1  0.0000000000      0.6508444444       3
     159   157   165   167     1  0.0000000000      0.6508444444       3
     155   157   159   881     1  0.0000000000      0.6508444444       3
     158   157   159   881     1  0.0000000000      0.6508444444       3
     165   157   159   881     1  0.0000000000      0.6508444444       3
     2452  2482  2483  2448    1  180.0000000000    15.1670000000      2
     2452  2482  2483  2484    1  180.0000000000    15.1670000000      2
     2455  2482  2483  2448    1  180.0000000000    15.1670000000      2
     2455  2482  2483  2484    1  180.0000000000    15.1670000000      2
     2455  2457  2459  2460    1  0.0000000000      0.5439200000       3
     2455  2457  2459  2461    1  0.0000000000      0.6508444444       3
     2455  2457  2459  2475    1  0.0000000000      2.1756800000       3
     2458  2457  2459  2460    1  0.0000000000      0.5020800000       3
     2458  2457  2459  2461    1  0.0000000000      0.6508444444       3
     2458  2457  2459  2475    1  0.0000000000      0.5439200000       3
     2479  2457  2459  2460    1  0.0000000000      0.5439200000       3
     2479  2457  2459  2461    1  0.0000000000      0.6508444444       3
     2479  2457  2459  2475    1  0.0000000000      2.1756800000       3
     2455  2457  2479  2477    1  0.0000000000      0.6508444444       3
     2455  2457  2479  2480    1  0.0000000000      0.6508444444       3
     2455  2457  2479  2481    1  0.0000000000      0.6508444444       3
     2458  2457  2479  2477    1  0.0000000000      0.5439200000       3
     2458  2457  2479  2480    1  0.0000000000      0.5020800000       3
     2458  2457  2479  2481    1  0.0000000000      0.5020800000       3
     2459  2457  2479  2477    1  0.0000000000      0.6508444444       3
     2459  2457  2479  2480    1  0.0000000000      0.6508444444       3
     2459  2457  2479  2481    1  0.0000000000      0.6508444444       3
     6405  6404  6403  6402    1  0.0000000000      0.0000000000       2
     6406  6404  6403  6402    1  0.0000000000      0.0000000000       2
     6407  6404  6403  6402    1  0.0000000000      0.0000000000       2
     2453  2477  2479  2457    1  0.0000000000      0.6508444444       3
     2453  2477  2479  2480    1  0.0000000000      0.6508444444       3
     2453  2477  2479  2481    1  0.0000000000      0.6508444444       3
     2475  2477  2479  2457    1  0.0000000000      0.6508444444       3
     2475  2477  2479  2480    1  0.0000000000      0.6508444444       3
     2475  2477  2479  2481    1  0.0000000000      0.6508444444       3
     2478  2477  2479  2457    1  0.0000000000      0.5439200000       3
     2478  2477  2479  2480    1  0.0000000000      0.5020800000       3
     2478  2477  2479  2481    1  0.0000000000      0.5020800000       3
     143   148   149   150     1  180.0000000000    15.1670000000      2
     143   148   149   171     1  180.0000000000    15.1670000000      2
     169   148   149   150     1  180.0000000000    15.1670000000      2
     169   148   149   171     1  180.0000000000    15.1670000000      2
     143   148   169   168     1  180.0000000000    15.1670000000      2
     143   148   169   170     1  180.0000000000    15.1670000000      2
     149   148   169   168     1  180.0000000000    15.1670000000      2
     149   148   169   170     1  180.0000000000    15.1670000000      2
     2450  2452  2453  2454    1  0.0000000000      0.0000000000       1
     2450  2452  2453  2455    1  180.0000000000    1.0041600000       2
     2450  2452  2453  2477    1  180.0000000000    1.0041600000       2
     2482  2452  2453  2454    1  0.0000000000      0.0000000000       1
     2482  2452  2453  2455    1  180.0000000000    1.0041600000       2
     2482  2452  2453  2477    1  180.0000000000    1.0041600000       2
     2450  2452  2482  2455    1  180.0000000000    15.1670000000      2
     2450  2452  2482  2483    1  180.0000000000    15.1670000000      2
     2453  2452  2482  2455    1  180.0000000000    15.1670000000      2
     2453  2452  2482  2483    1  180.0000000000    15.1670000000      2
     6156  6166  6168  6160    1  0.0000000000      0.6508444444       3
     6156  6166  6168  6169    1  0.0000000000      0.6508444444       3
     6156  6166  6168  6170    1  0.0000000000      0.6508444444       3
     6164  6166  6168  6160    1  0.0000000000      2.1756800000       3
     6164  6166  6168  6169    1  0.0000000000      0.5439200000       3
     6164  6166  6168  6170    1  0.0000000000      0.5439200000       3
     6167  6166  6168  6160    1  0.0000000000      0.5439200000       3
     6167  6166  6168  6169    1  0.0000000000      0.5020800000       3
     6167  6166  6168  6170    1  0.0000000000      0.5020800000       3
     6158  6160  6162  6163    1  0.0000000000      0.6508444444       3
     6158  6160  6162  6164    1  0.0000000000      0.6508444444       3
     6161  6160  6162  6163    1  0.0000000000      0.5020800000       3
     6161  6160  6162  6164    1  0.0000000000      0.5439200000       3
     6168  6160  6162  6163    1  0.0000000000      0.5439200000       3
     6168  6160  6162  6164    1  0.0000000000      2.1756800000       3
     6158  6160  6168  6166    1  0.0000000000      0.6508444444       3
     6158  6160  6168  6169    1  0.0000000000      0.6508444444       3
     6158  6160  6168  6170    1  0.0000000000      0.6508444444       3
     6161  6160  6168  6166    1  0.0000000000      0.5439200000       3
     6161  6160  6168  6169    1  0.0000000000      0.5020800000       3
     6161  6160  6168  6170    1  0.0000000000      0.5020800000       3
     6162  6160  6168  6166    1  0.0000000000      2.1756800000       3
     6162  6160  6168  6169    1  0.0000000000      0.5439200000       3
     6162  6160  6168  6170    1  0.0000000000      0.5439200000       3
     6156  6158  6160  6161    1  0.0000000000      0.5439200000       3
     6156  6158  6160  6162    1  0.0000000000      2.1756800000       3
     6156  6158  6160  6168    1  0.0000000000      2.1756800000       3
     6159  6158  6160  6161    1  0.0000000000      0.5020800000       3
     6159  6158  6160  6162    1  0.0000000000      0.5439200000       3
     6159  6158  6160  6168    1  0.0000000000      0.5439200000       3
     6171  6158  6160  6161    1  0.0000000000      0.6508444444       3
     6171  6158  6160  6162    1  0.0000000000      0.6508444444       3
     6171  6158  6160  6168    1  0.0000000000      0.6508444444       3
     6156  6158  6171  6155    1  180.0000000000    1.0041600000       2
     6156  6158  6171  6172    1  180.0000000000    1.0041600000       2
     6159  6158  6171  6155    1  0.0000000000      0.0000000000       1
     6159  6158  6171  6172    1  0.0000000000      0.0000000000       1
     6160  6158  6171  6155    1  180.0000000000    1.0041600000       2
     6160  6158  6171  6172    1  180.0000000000    1.0041600000       2
     4496  4497  4499  4500    1  180.0000000000    15.1670000000      2
     4496  4497  4499  4515    1  180.0000000000    15.1670000000      2
     4498  4497  4499  4500    1  180.0000000000    15.1670000000      2
     4498  4497  4499  4515    1  180.0000000000    15.1670000000      2
     4073  4072  4076  4077    1  0.0000000000      0.5439200000       3
     4073  4072  4076  4081    1  0.0000000000      0.6508444444       3
     4073  4072  4076  4105    1  0.0000000000      0.6508444444       3
     4074  4072  4076  4077    1  0.0000000000      0.5439200000       3
     4074  4072  4076  4081    1  0.0000000000      0.6508444444       3
     4074  4072  4076  4105    1  0.0000000000      0.6508444444       3
     4075  4072  4076  4077    1  0.0000000000      0.5439200000       3
     4075  4072  4076  4081    1  0.0000000000      0.6508444444       3
     4075  4072  4076  4105    1  0.0000000000      0.6508444444       3
     4497  4499  4500  4501    1  0.0000000000      0.0000000000       1
     4497  4499  4500  4502    1  180.0000000000    1.0041600000       2
     4497  4499  4500  4510    1  180.0000000000    1.0041600000       2
     4515  4499  4500  4501    1  0.0000000000      0.0000000000       1
     4515  4499  4500  4502    1  180.0000000000    1.0041600000       2
     4515  4499  4500  4510    1  180.0000000000    1.0041600000       2
     4497  4499  4515  4502    1  180.0000000000    15.1670000000      2
     4497  4499  4515  4516    1  180.0000000000    15.1670000000      2
     4500  4499  4515  4502    1  180.0000000000    15.1670000000      2
     4500  4499  4515  4516    1  180.0000000000    15.1670000000      2
     6152  6153  6155  6156    1  180.0000000000    15.1670000000      2
     6152  6153  6155  6171    1  180.0000000000    15.1670000000      2
     6154  6153  6155  6156    1  180.0000000000    15.1670000000      2
     6154  6153  6155  6171    1  180.0000000000    15.1670000000      2
     6160  6162  6164  6165    1  0.0000000000      0.5439200000       3
     6160  6162  6164  6166    1  0.0000000000      2.1756800000       3
     6163  6162  6164  6165    1  0.0000000000      0.5020800000       3
     6163  6162  6164  6166    1  0.0000000000      0.5439200000       3
     4508  4510  4500  4499    1  0.0000000000      0.6508444444       3
     4508  4510  4500  4501    1  0.0000000000      0.5439200000       3
     4508  4510  4500  4502    1  0.0000000000      2.1756800000       3
     4500  4510  4512  4504    1  0.0000000000      0.6508444444       3
     4500  4510  4512  4513    1  0.0000000000      0.6508444444       3
     4500  4510  4512  4514    1  0.0000000000      0.6508444444       3
     4508  4510  4512  4513    1  0.0000000000      0.6508444444       3
     4508  4510  4512  4514    1  0.0000000000      0.6508444444       3
     4511  4510  4512  4504    1  0.0000000000      0.5439200000       3
     4511  4510  4512  4513    1  0.0000000000      0.5020800000       3
     4511  4510  4512  4514    1  0.0000000000      0.5020800000       3
     4500  4510  4508  4506    1  0.0000000000      2.1756800000       3
     4511  4510  4508  4506    1  0.0000000000      0.5439200000       3
     4512  4510  4508  4506    1  0.0000000000      2.1756800000       3
     4500  4510  4508  4509    1  0.0000000000      0.5439200000       3
     4511  4510  4508  4509    1  0.0000000000      0.5020800000       3
     4512  4510  4508  4509    1  0.0000000000      0.5439200000       3
     4500  4510  4508  6402    1  0.0000000000      0.6508444444       3
     4511  4510  4508  6402    1  0.0000000000      0.6508444444       3
     4512  4510  4508  6402    1  0.0000000000      0.6508444444       3
     4522  4552  4553  4518    1  180.0000000000    15.1670000000      2
     4522  4552  4553  4554    1  180.0000000000    15.1670000000      2
     4525  4552  4553  4518    1  180.0000000000    15.1670000000      2
     4525  4552  4553  4554    1  180.0000000000    15.1670000000      2
     2453  2455  2457  2458    1  0.0000000000      0.5439200000       3
     2453  2455  2457  2459    1  0.0000000000      2.1756800000       3
     2453  2455  2457  2479    1  0.0000000000      2.1756800000       3
     2456  2455  2457  2458    1  0.0000000000      0.5020800000       3
     2456  2455  2457  2459    1  0.0000000000      0.5439200000       3
     2456  2455  2457  2479    1  0.0000000000      0.5439200000       3
     2482  2455  2457  2458    1  0.0000000000      0.6508444444       3
     2482  2455  2457  2459    1  0.0000000000      0.6508444444       3
     2482  2455  2457  2479    1  0.0000000000      0.6508444444       3
     2453  2455  2482  2452    1  180.0000000000    1.0041600000       2
     2453  2455  2482  2483    1  180.0000000000    1.0041600000       2
     2456  2455  2482  2452    1  0.0000000000      0.0000000000       1
     2456  2455  2482  2483    1  0.0000000000      0.0000000000       1
     2457  2455  2482  2452    1  180.0000000000    1.0041600000       2
     2457  2455  2482  2483    1  180.0000000000    1.0041600000       2
     4510  4508  4506  4507    1  0.0000000000      0.6508444444       3
     4510  4508  4506  6401    1  0.0000000000      0.6508444444       3
     6402  4508  4506  4507    1  0.0000000000      0.6508444444       3
     4105  4106  4108  4109    1  180.0000000000    15.1670000000      2
     4105  4106  4108  4138    1  180.0000000000    15.1670000000      2
     4107  4106  4108  4109    1  180.0000000000    15.1670000000      2
     4107  4106  4108  4138    1  180.0000000000    15.1670000000      2
     157   159   161   162     1  0.0000000000      0.6508444444       3
     157   159   161   163     1  0.0000000000      0.6508444444       3
     160   159   161   162     1  0.0000000000      0.6508444444       3
     157   159   161   882     1  0.0000000000      0.6508444444       3
     881   159   161   162     1  0.0000000000      0.6508444444       3
     163   165   157   159     1  0.0000000000      0.6508444444       3
     157   165   163   161     1  0.0000000000      0.6508444444       3
     4523  4525  4527  4528    1  0.0000000000      0.5439200000       3
     4523  4525  4527  4529    1  0.0000000000      2.1756800000       3
     4523  4525  4527  4549    1  0.0000000000      2.1756800000       3
     4526  4525  4527  4528    1  0.0000000000      0.5020800000       3
     4526  4525  4527  4529    1  0.0000000000      0.5439200000       3
     4526  4525  4527  4549    1  0.0000000000      0.5439200000       3
     4552  4525  4527  4528    1  0.0000000000      0.6508444444       3
     4552  4525  4527  4529    1  0.0000000000      0.6508444444       3
     4552  4525  4527  4549    1  0.0000000000      0.6508444444       3
     4523  4525  4552  4522    1  180.0000000000    1.0041600000       2
     4523  4525  4552  4553    1  180.0000000000    1.0041600000       2
     4526  4525  4552  4522    1  0.0000000000      0.0000000000       1
     4526  4525  4552  4553    1  0.0000000000      0.0000000000       1
     4527  4525  4552  4522    1  180.0000000000    1.0041600000       2
     4527  4525  4552  4553    1  180.0000000000    1.0041600000       2
     4076  4081  4082  4083    1  180.0000000000    15.1670000000      2
     4076  4081  4082  4104    1  180.0000000000    15.1670000000      2
     4102  4081  4082  4083    1  180.0000000000    15.1670000000      2
     4102  4081  4082  4104    1  180.0000000000    15.1670000000      2
     4076  4081  4102  4101    1  180.0000000000    15.1670000000      2
     4076  4081  4102  4103    1  180.0000000000    15.1670000000      2
     4082  4081  4102  4101    1  180.0000000000    15.1670000000      2
     4082  4081  4102  4103    1  180.0000000000    15.1670000000      2
     2452  2453  2455  2456    1  0.0000000000      0.6508444444       3
     2452  2453  2455  2457    1  0.0000000000      0.6508444444       3
     2452  2453  2455  2482    1  0.0000000000      0.6508444444       3
     2454  2453  2455  2456    1  0.0000000000      0.6508444444       3
     2454  2453  2455  2457    1  0.0000000000      0.6508444444       3
     2454  2453  2455  2482    1  0.0000000000      0.6508444444       3
     2477  2453  2455  2456    1  0.0000000000      0.6508444444       3
     2477  2453  2455  2457    1  0.0000000000      0.6508444444       3
     2477  2453  2455  2482    1  0.0000000000      0.6508444444       3
     2452  2453  2477  2475    1  0.0000000000      0.6508444444       3
     2452  2453  2477  2478    1  0.0000000000      0.6508444444       3
     2452  2453  2477  2479    1  0.0000000000      0.6508444444       3
     2454  2453  2477  2475    1  0.0000000000      0.5439200000       3
     2454  2453  2477  2478    1  0.0000000000      0.5020800000       3
     2454  2453  2477  2479    1  0.0000000000      0.5439200000       3
     2455  2453  2477  2475    1  0.0000000000      2.1756800000       3
     2455  2453  2477  2478    1  0.0000000000      0.5439200000       3
     2455  2453  2477  2479    1  0.0000000000      2.1756800000       3
     4499  4500  4502  4503    1  0.0000000000      0.6508444444       3
     4499  4500  4502  4504    1  0.0000000000      0.6508444444       3
     4499  4500  4502  4515    1  0.0000000000      0.6508444444       3
     4501  4500  4502  4503    1  0.0000000000      0.6508444444       3
     4501  4500  4502  4504    1  0.0000000000      0.6508444444       3
     4501  4500  4502  4515    1  0.0000000000      0.6508444444       3
     4510  4500  4502  4503    1  0.0000000000      0.6508444444       3
     4510  4500  4502  4504    1  0.0000000000      0.6508444444       3
     4510  4500  4502  4515    1  0.0000000000      0.6508444444       3
     4499  4500  4510  4511    1  0.0000000000      0.6508444444       3
     4499  4500  4510  4512    1  0.0000000000      0.6508444444       3
     4501  4500  4510  4511    1  0.0000000000      0.5020800000       3
     4501  4500  4510  4512    1  0.0000000000      0.5439200000       3
     4502  4500  4510  4511    1  0.0000000000      0.5439200000       3
     4502  4500  4510  4512    1  0.0000000000      2.1756800000       3
     6155  6156  6158  6159    1  0.0000000000      0.6508444444       3
     6155  6156  6158  6160    1  0.0000000000      0.6508444444       3
     6155  6156  6158  6171    1  0.0000000000      0.6508444444       3
     6157  6156  6158  6159    1  0.0000000000      0.6508444444       3
     6157  6156  6158  6160    1  0.0000000000      0.6508444444       3
     6157  6156  6158  6171    1  0.0000000000      0.6508444444       3
     6166  6156  6158  6159    1  0.0000000000      0.6508444444       3
     6166  6156  6158  6160    1  0.0000000000      0.6508444444       3
     6166  6156  6158  6171    1  0.0000000000      0.6508444444       3
     6155  6156  6166  6164    1  0.0000000000      0.6508444444       3
     6155  6156  6166  6167    1  0.0000000000      0.6508444444       3
     6155  6156  6166  6168    1  0.0000000000      0.6508444444       3
     6157  6156  6166  6164    1  0.0000000000      0.5439200000       3
     6157  6156  6166  6167    1  0.0000000000      0.5020800000       3
     6157  6156  6166  6168    1  0.0000000000      0.5439200000       3
     6158  6156  6166  6164    1  0.0000000000      2.1756800000       3
     6158  6156  6166  6167    1  0.0000000000      0.5439200000       3
     6158  6156  6166  6168    1  0.0000000000      2.1756800000       3
     4082  4104  4105  4076    1  180.0000000000    15.1670000000      2
     4082  4104  4105  4106    1  180.0000000000    15.1670000000      2
     4139  4104  4105  4076    1  180.0000000000    15.1670000000      2
     4139  4104  4105  4106    1  180.0000000000    15.1670000000      2
     4082  4104  4139  4138    1  180.0000000000    15.1670000000      2
     4082  4104  4139  4140    1  180.0000000000    15.1670000000      2
     4105  4104  4139  4138    1  180.0000000000    15.1670000000      2
     4105  4104  4139  4140    1  180.0000000000    15.1670000000      2
     6153  6155  6156  6157    1  0.0000000000      0.0000000000       1
     6153  6155  6156  6158    1  180.0000000000    1.0041600000       2
     6153  6155  6156  6166    1  180.0000000000    1.0041600000       2
     6171  6155  6156  6157    1  0.0000000000      0.0000000000       1
     6171  6155  6156  6158    1  180.0000000000    1.0041600000       2
     6171  6155  6156  6166    1  180.0000000000    1.0041600000       2
     6153  6155  6171  6158    1  180.0000000000    15.1670000000      2
     6153  6155  6171  6172    1  180.0000000000    15.1670000000      2
     6156  6155  6171  6158    1  180.0000000000    15.1670000000      2
     6156  6155  6171  6172    1  180.0000000000    15.1670000000      2
     4076  4105  4106  4107    1  180.0000000000    15.1670000000      2
     4076  4105  4106  4108    1  180.0000000000    15.1670000000      2
     4104  4105  4106  4107    1  180.0000000000    15.1670000000      2
     4104  4105  4106  4108    1  180.0000000000    15.1670000000      2
     4072  4076  4077  4078    1  0.0000000000      0.5439200000       3
     4072  4076  4077  4079    1  0.0000000000      0.5439200000       3
     4072  4076  4077  4080    1  0.0000000000      0.5439200000       3
     4081  4076  4077  4078    1  0.0000000000      0.6508444444       3
     4081  4076  4077  4079    1  0.0000000000      0.6508444444       3
     4081  4076  4077  4080    1  0.0000000000      0.6508444444       3
     4105  4076  4077  4078    1  0.0000000000      0.6508444444       3
     4105  4076  4077  4079    1  0.0000000000      0.6508444444       3
     4105  4076  4077  4080    1  0.0000000000      0.6508444444       3
     4072  4076  4081  4082    1  0.0000000000      0.0000000000       2
     4072  4076  4081  4102    1  180.0000000000    1.0041600000       2
     4077  4076  4081  4082    1  0.0000000000      0.0000000000       2
     4077  4076  4081  4102    1  180.0000000000    1.0041600000       2
     4105  4076  4081  4082    1  0.0000000000      0.0000000000       2
     4105  4076  4081  4102    1  180.0000000000    0.0000000000       2
     4072  4076  4105  4104    1  0.0000000000      0.0000000000       2
     4072  4076  4105  4106    1  180.0000000000    1.0041600000       2
     4077  4076  4105  4104    1  0.0000000000      0.0000000000       2
     4077  4076  4105  4106    1  180.0000000000    1.0041600000       2
     4081  4076  4105  4104    1  0.0000000000      0.0000000000       2
     4081  4076  4105  4106    1  180.0000000000    0.0000000000       2
     6162  6164  6166  6156    1  0.0000000000      0.6508444444       3
     6162  6164  6166  6167    1  0.0000000000      0.5439200000       3
     6162  6164  6166  6168    1  0.0000000000      2.1756800000       3
     6165  6164  6166  6156    1  0.0000000000      0.6508444444       3
     6165  6164  6166  6167    1  0.0000000000      0.5020800000       3
     6165  6164  6166  6168    1  0.0000000000      0.5439200000       3
     6152  6174  6175  6146    1  180.0000000000    15.1670000000      2
     6152  6174  6175  6176    1  180.0000000000    15.1670000000      2
     6209  6174  6175  6146    1  180.0000000000    15.1670000000      2
     6209  6174  6175  6176    1  180.0000000000    15.1670000000      2
     6152  6174  6209  6208    1  180.0000000000    15.1670000000      2
     6152  6174  6209  6210    1  180.0000000000    15.1670000000      2
     6175  6174  6209  6208    1  180.0000000000    15.1670000000      2
     6175  6174  6209  6210    1  180.0000000000    15.1670000000      2
     830   829   833   834     1  0.0000000000      0.5439200000       3
     830   829   833   838     1  0.0000000000      0.6508444444       3
     830   829   833   862     1  0.0000000000      0.6508444444       3
     831   829   833   834     1  0.0000000000      0.5439200000       3
     831   829   833   838     1  0.0000000000      0.6508444444       3
     831   829   833   862     1  0.0000000000      0.6508444444       3
     832   829   833   834     1  0.0000000000      0.5439200000       3
     832   829   833   838     1  0.0000000000      0.6508444444       3
     832   829   833   862     1  0.0000000000      0.6508444444       3
     4081  4082  4083  4084    1  180.0000000000    15.1670000000      2
     4081  4082  4083  4085    1  180.0000000000    15.1670000000      2
     4104  4082  4083  4084    1  180.0000000000    15.1670000000      2
     4104  4082  4083  4085    1  180.0000000000    15.1670000000      2
     4081  4082  4104  4105    1  180.0000000000    4.1840000000       2
     4081  4082  4104  4139    1  180.0000000000    4.1840000000       2
     4083  4082  4104  4105    1  180.0000000000    4.1840000000       2
     4083  4082  4104  4139    1  180.0000000000    4.1840000000       2
     6155  6171  6172  6151    1  180.0000000000    15.1670000000      2
     6155  6171  6172  6173    1  180.0000000000    15.1670000000      2
     6158  6171  6172  6151    1  180.0000000000    15.1670000000      2
     6158  6171  6172  6173    1  180.0000000000    15.1670000000      2
     833   838   839   840     1  180.0000000000    15.1670000000      2
     833   838   839   861     1  180.0000000000    15.1670000000      2
     859   838   839   840     1  180.0000000000    15.1670000000      2
     859   838   839   861     1  180.0000000000    15.1670000000      2
     833   838   859   858     1  180.0000000000    15.1670000000      2
     833   838   859   860     1  180.0000000000    15.1670000000      2
     839   838   859   858     1  180.0000000000    15.1670000000      2
     839   838   859   860     1  180.0000000000    15.1670000000      2
     5821  5823  5815  5817    1  0.0000000000      0.6508444444       3
     5815  5823  5821  5819    1  0.0000000000      0.6508444444       3
     3751  3749  3747  3748    1  0.0000000000      0.6508444444       3
     3751  3749  3747  2054    1  0.0000000000      0.6508444444       3
     2055  3749  3747  3748    1  0.0000000000      0.6508444444       3
     3749  3751  3741  3740    1  0.0000000000      0.6508444444       3
     3749  3751  3741  3742    1  0.0000000000      0.5439200000       3
     3749  3751  3741  3743    1  0.0000000000      2.1756800000       3
     3741  3751  3749  3747    1  0.0000000000      2.1756800000       3
     3752  3751  3749  3747    1  0.0000000000      0.5439200000       3
     3753  3751  3749  3747    1  0.0000000000      2.1756800000       3
     3741  3751  3749  3750    1  0.0000000000      0.5439200000       3
     3752  3751  3749  3750    1  0.0000000000      0.5020800000       3
     3753  3751  3749  3750    1  0.0000000000      0.5439200000       3
     3741  3751  3753  3745    1  0.0000000000      0.6508444444       3
     3741  3751  3753  3754    1  0.0000000000      0.6508444444       3
     3741  3751  3753  3755    1  0.0000000000      0.6508444444       3
     3749  3751  3753  3754    1  0.0000000000      0.6508444444       3
     3749  3751  3753  3755    1  0.0000000000      0.6508444444       3
     3752  3751  3753  3745    1  0.0000000000      0.5439200000       3
     3752  3751  3753  3754    1  0.0000000000      0.5020800000       3
     3752  3751  3753  3755    1  0.0000000000      0.5020800000       3
     3741  3751  3749  2055    1  0.0000000000      0.6508444444       3
     3752  3751  3749  2055    1  0.0000000000      0.6508444444       3
     3753  3751  3749  2055    1  0.0000000000      0.6508444444       3
     3751  3753  3745  3747    1  0.0000000000      0.6508444444       3
     3745  3753  3751  3749    1  0.0000000000      0.6508444444       3
     4956  4955  4954  4953    1  0.0000000000      0.0000000000       2
     4957  4955  4954  4953    1  0.0000000000      0.0000000000       2
     4958  4955  4954  4953    1  0.0000000000      0.0000000000       2
     5156  5155  5154  5159    1  0.0000000000      0.0000000000       2
     5157  5155  5154  5159    1  0.0000000000      0.0000000000       2
     5158  5155  5154  5159    1  0.0000000000      0.0000000000       2
     2054  2055  2056  2047    1  180.0000000000    15.1670000000      2
     2056  2055  2054  3747    1  180.0000000000    15.1670000000      2
     2054  2055  3749  3747    1  180.0000000000    1.0041600000       2
     2056  2055  3749  3747    1  180.0000000000    1.0041600000       2
     2054  2055  3749  3750    1  0.0000000000      0.0000000000       1
     2056  2055  3749  3750    1  0.0000000000      0.0000000000       1
     2054  2055  3749  3751    1  180.0000000000    1.0041600000       2
     2056  2055  3749  3751    1  180.0000000000    1.0041600000       2
     5144  5168  5170  5148    1  0.0000000000      0.6508444444       3
     5144  5168  5170  5171    1  0.0000000000      0.6508444444       3
     5144  5168  5170  5172    1  0.0000000000      0.6508444444       3
     5166  5168  5170  5148    1  0.0000000000      0.6508444444       3
     5166  5168  5170  5171    1  0.0000000000      0.6508444444       3
     5166  5168  5170  5172    1  0.0000000000      0.6508444444       3
     5169  5168  5170  5148    1  0.0000000000      0.5439200000       3
     5169  5168  5170  5171    1  0.0000000000      0.5020800000       3
     5169  5168  5170  5172    1  0.0000000000      0.5020800000       3
     5150  5166  5168  5144    1  0.0000000000      2.1756800000       3
     5150  5166  5168  5169    1  0.0000000000      0.5439200000       3
     5150  5166  5168  5170    1  0.0000000000      2.1756800000       3
     5153  5166  5168  5144    1  0.0000000000      0.6508444444       3
     5153  5166  5168  5169    1  0.0000000000      0.6508444444       3
     5153  5166  5168  5170    1  0.0000000000      0.6508444444       3
     5167  5166  5168  5144    1  0.0000000000      0.5439200000       3
     5167  5166  5168  5169    1  0.0000000000      0.5020800000       3
     5167  5166  5168  5170    1  0.0000000000      0.5439200000       3
     3740  3741  3743  3744    1  0.0000000000      0.6508444444       3
     3740  3741  3743  3745    1  0.0000000000      0.6508444444       3
     3740  3741  3743  3756    1  0.0000000000      0.6508444444       3
     3742  3741  3743  3744    1  0.0000000000      0.6508444444       3
     3742  3741  3743  3745    1  0.0000000000      0.6508444444       3
     3742  3741  3743  3756    1  0.0000000000      0.6508444444       3
     3751  3741  3743  3744    1  0.0000000000      0.6508444444       3
     3751  3741  3743  3745    1  0.0000000000      0.6508444444       3
     3751  3741  3743  3756    1  0.0000000000      0.6508444444       3
     3740  3741  3751  3752    1  0.0000000000      0.6508444444       3
     3740  3741  3751  3753    1  0.0000000000      0.6508444444       3
     3742  3741  3751  3752    1  0.0000000000      0.5020800000       3
     3742  3741  3751  3753    1  0.0000000000      0.5439200000       3
     3743  3741  3751  3752    1  0.0000000000      0.5439200000       3
     3743  3741  3751  3753    1  0.0000000000      2.1756800000       3
     5152  5153  5154  5155    1  180.0000000000    15.1670000000      2
     5152  5153  5154  5159    1  180.0000000000    15.1670000000      2
     5166  5153  5154  5155    1  180.0000000000    15.1670000000      2
     5152  5153  5166  5150    1  180.0000000000    1.0041600000       2
     5152  5153  5166  5167    1  0.0000000000      0.0000000000       1
     5152  5153  5166  5168    1  180.0000000000    1.0041600000       2
     5154  5153  5166  5150    1  180.0000000000    1.0041600000       2
     5154  5153  5166  5167    1  0.0000000000      0.0000000000       1
     5154  5153  5166  5168    1  180.0000000000    1.0041600000       2
     5140  5141  5143  5144    1  180.0000000000    15.1670000000      2
     5140  5141  5143  5173    1  180.0000000000    15.1670000000      2
     5142  5141  5143  5144    1  180.0000000000    15.1670000000      2
     5142  5141  5143  5173    1  180.0000000000    15.1670000000      2
     2058  2057  2056  2055    1  0.0000000000      0.0000000000       2
     2059  2057  2056  2055    1  0.0000000000      0.0000000000       2
     2060  2057  2056  2055    1  0.0000000000      0.0000000000       2
     4573  4575  4577  4578    1  0.0000000000      0.6508444444       3
     4573  4575  4577  4579    1  0.0000000000      0.6508444444       3
     4576  4575  4577  4578    1  0.0000000000      0.6508444444       3
     4953  4575  4577  4578    1  0.0000000000      0.6508444444       3
     4953  4575  4577  4952    1  0.0000000000      0.6508444444       3
     4573  4575  4577  4952    1  0.0000000000      0.6508444444       3
     2055  2056  2047  2045    1  180.0000000000    15.1670000000      2
     2047  2056  2057  2058    1  0.0000000000      0.0000000000       2
     2047  2056  2057  2059    1  0.0000000000      0.0000000000       2
     2047  2056  2057  2060    1  0.0000000000      0.0000000000       2
     2057  2056  2055  2054    1  180.0000000000    15.1670000000      2
     2047  2056  2055  3749    1  180.0000000000    15.1670000000      2
     2057  2056  2055  3749    1  180.0000000000    15.1670000000      2
     4955  4954  4953  4952    1  180.0000000000    15.1670000000      2
     4953  4954  4945  4943    1  180.0000000000    15.1670000000      2
     4945  4954  4955  4956    1  0.0000000000      0.0000000000       2
     4945  4954  4955  4957    1  0.0000000000      0.0000000000       2
     4945  4954  4955  4958    1  0.0000000000      0.0000000000       2
     4945  4954  4953  4575    1  180.0000000000    15.1670000000      2
     4955  4954  4953  4575    1  180.0000000000    15.1670000000      2
     5148  5150  5152  5153    1  180.0000000000    1.0041600000       2
     5148  5150  5152  5161    1  180.0000000000    1.0041600000       2
     5151  5150  5152  5153    1  0.0000000000      0.0000000000       1
     5151  5150  5152  5161    1  0.0000000000      0.0000000000       1
     5166  5150  5152  5153    1  180.0000000000    1.0041600000       2
     5166  5150  5152  5161    1  180.0000000000    1.0041600000       2
     5148  5150  5166  5153    1  0.0000000000      0.6508444444       3
     5148  5150  5166  5167    1  0.0000000000      0.6508444444       3
     5148  5150  5166  5168    1  0.0000000000      0.6508444444       3
     5151  5150  5166  5153    1  0.0000000000      0.6508444444       3
     5151  5150  5166  5167    1  0.0000000000      0.6508444444       3
     5151  5150  5166  5168    1  0.0000000000      0.6508444444       3
     5152  5150  5166  5153    1  0.0000000000      0.6508444444       3
     5152  5150  5166  5167    1  0.0000000000      0.6508444444       3
     5152  5150  5166  5168    1  0.0000000000      0.6508444444       3
     5159  5154  5153  5166    1  180.0000000000    15.1670000000      2
     5153  5154  5155  5156    1  0.0000000000      0.0000000000       2
     5153  5154  5155  5157    1  0.0000000000      0.0000000000       2
     5153  5154  5155  5158    1  0.0000000000      0.0000000000       2
     5153  5154  5159  5160    1  180.0000000000    15.1670000000      2
     5155  5154  5159  5160    1  180.0000000000    15.1670000000      2
     5153  5154  5159  987     1  180.0000000000    15.1670000000      2
     5155  5154  5159  987     1  180.0000000000    15.1670000000      2
     4952  4953  4954  4945    1  180.0000000000    15.1670000000      2
     4575  4953  4952  4577    1  180.0000000000    15.1670000000      2
     4952  4953  4575  4573    1  180.0000000000    1.0041600000       2
     4954  4953  4575  4573    1  180.0000000000    1.0041600000       2
     4952  4953  4575  4576    1  0.0000000000      0.0000000000       1
     4954  4953  4575  4576    1  0.0000000000      0.0000000000       1
     4952  4953  4575  4577    1  180.0000000000    1.0041600000       2
     4954  4953  4575  4577    1  180.0000000000    1.0041600000       2
     4954  4953  4952  4577    1  180.0000000000    15.1670000000      2
     5111  5140  5141  5142    1  180.0000000000    15.1670000000      2
     5111  5140  5141  5143    1  180.0000000000    15.1670000000      2
     5139  5140  5141  5142    1  180.0000000000    15.1670000000      2
     5139  5140  5141  5143    1  180.0000000000    15.1670000000      2
     5141  5143  5144  5145    1  0.0000000000      0.0000000000       1
     5141  5143  5144  5146    1  180.0000000000    1.0041600000       2
     5141  5143  5144  5168    1  180.0000000000    1.0041600000       2
     5173  5143  5144  5145    1  0.0000000000      0.0000000000       1
     5173  5143  5144  5146    1  180.0000000000    1.0041600000       2
     5173  5143  5144  5168    1  180.0000000000    1.0041600000       2
     5141  5143  5173  5146    1  180.0000000000    15.1670000000      2
     5141  5143  5173  5174    1  180.0000000000    15.1670000000      2
     5144  5143  5173  5146    1  180.0000000000    15.1670000000      2
     5144  5143  5173  5174    1  180.0000000000    15.1670000000      2
     5143  5144  5146  5147    1  0.0000000000      0.6508444444       3
     5143  5144  5146  5148    1  0.0000000000      0.6508444444       3
     5143  5144  5146  5173    1  0.0000000000      0.6508444444       3
     5145  5144  5146  5147    1  0.0000000000      0.6508444444       3
     5145  5144  5146  5148    1  0.0000000000      0.6508444444       3
     5145  5144  5146  5173    1  0.0000000000      0.6508444444       3
     5168  5144  5146  5147    1  0.0000000000      0.6508444444       3
     5168  5144  5146  5148    1  0.0000000000      0.6508444444       3
     5168  5144  5146  5173    1  0.0000000000      0.6508444444       3
     5143  5144  5168  5166    1  0.0000000000      0.6508444444       3
     5143  5144  5168  5169    1  0.0000000000      0.6508444444       3
     5143  5144  5168  5170    1  0.0000000000      0.6508444444       3
     5145  5144  5168  5166    1  0.0000000000      0.5439200000       3
     5145  5144  5168  5169    1  0.0000000000      0.5020800000       3
     5145  5144  5168  5170    1  0.0000000000      0.5439200000       3
     5146  5144  5168  5166    1  0.0000000000      2.1756800000       3
     5146  5144  5168  5169    1  0.0000000000      0.5439200000       3
     5146  5144  5168  5170    1  0.0000000000      2.1756800000       3
     3740  3756  3757  3736    1  180.0000000000    15.1670000000      2
     3740  3756  3757  3758    1  180.0000000000    15.1670000000      2
     3743  3756  3757  3736    1  180.0000000000    15.1670000000      2
     3743  3756  3757  3758    1  180.0000000000    15.1670000000      2
     4941  4943  4945  4946    1  180.0000000000    1.0041600000       2
     4941  4943  4945  4954    1  180.0000000000    1.0041600000       2
     4944  4943  4945  4946    1  0.0000000000      0.0000000000       1
     4944  4943  4945  4954    1  0.0000000000      0.0000000000       1
     4959  4943  4945  4946    1  180.0000000000    1.0041600000       2
     4959  4943  4945  4954    1  180.0000000000    1.0041600000       2
     4941  4943  4959  4946    1  0.0000000000      0.6508444444       3
     4941  4943  4959  4960    1  0.0000000000      0.6508444444       3
     4941  4943  4959  4961    1  0.0000000000      0.6508444444       3
     4944  4943  4959  4946    1  0.0000000000      0.6508444444       3
     4944  4943  4959  4960    1  0.0000000000      0.6508444444       3
     4944  4943  4959  4961    1  0.0000000000      0.6508444444       3
     4945  4943  4959  4946    1  0.0000000000      0.6508444444       3
     4945  4943  4959  4960    1  0.0000000000      0.6508444444       3
     4945  4943  4959  4961    1  0.0000000000      0.6508444444       3
     5146  5148  5150  5151    1  0.0000000000      0.5439200000       3
     5146  5148  5150  5152    1  0.0000000000      0.6508444444       3
     5146  5148  5150  5166    1  0.0000000000      2.1756800000       3
     5149  5148  5150  5151    1  0.0000000000      0.5020800000       3
     5149  5148  5150  5152    1  0.0000000000      0.6508444444       3
     5149  5148  5150  5166    1  0.0000000000      0.5439200000       3
     5170  5148  5150  5151    1  0.0000000000      0.5439200000       3
     5170  5148  5150  5152    1  0.0000000000      0.6508444444       3
     5170  5148  5150  5166    1  0.0000000000      2.1756800000       3
     5146  5148  5170  5168    1  0.0000000000      0.6508444444       3
     5146  5148  5170  5171    1  0.0000000000      0.6508444444       3
     5146  5148  5170  5172    1  0.0000000000      0.6508444444       3
     5149  5148  5170  5168    1  0.0000000000      0.5439200000       3
     5149  5148  5170  5171    1  0.0000000000      0.5020800000       3
     5149  5148  5170  5172    1  0.0000000000      0.5020800000       3
     5150  5148  5170  5168    1  0.0000000000      0.6508444444       3
     5150  5148  5170  5171    1  0.0000000000      0.6508444444       3
     5150  5148  5170  5172    1  0.0000000000      0.6508444444       3
     5143  5173  5174  5139    1  180.0000000000    15.1670000000      2
     5143  5173  5174  5175    1  180.0000000000    15.1670000000      2
     5146  5173  5174  5139    1  180.0000000000    15.1670000000      2
     5146  5173  5174  5175    1  180.0000000000    15.1670000000      2
     3741  3743  3745  3746    1  0.0000000000      0.5439200000       3
     3741  3743  3745  3753    1  0.0000000000      2.1756800000       3
     3744  3743  3745  3746    1  0.0000000000      0.5020800000       3
     3744  3743  3745  3753    1  0.0000000000      0.5439200000       3
     3756  3743  3745  3746    1  0.0000000000      0.6508444444       3
     3756  3743  3745  3753    1  0.0000000000      0.6508444444       3
     3741  3743  3756  3740    1  180.0000000000    1.0041600000       2
     3741  3743  3756  3757    1  180.0000000000    1.0041600000       2
     3744  3743  3756  3740    1  0.0000000000      0.0000000000       1
     3744  3743  3756  3757    1  0.0000000000      0.0000000000       1
     3745  3743  3756  3740    1  180.0000000000    1.0041600000       2
     3745  3743  3756  3757    1  180.0000000000    1.0041600000       2
     5144  5146  5148  5149    1  0.0000000000      0.5439200000       3
     5144  5146  5148  5150    1  0.0000000000      2.1756800000       3
     5144  5146  5148  5170    1  0.0000000000      2.1756800000       3
     5147  5146  5148  5149    1  0.0000000000      0.5020800000       3
     5147  5146  5148  5150    1  0.0000000000      0.5439200000       3
     5147  5146  5148  5170    1  0.0000000000      0.5439200000       3
     5173  5146  5148  5149    1  0.0000000000      0.6508444444       3
     5173  5146  5148  5150    1  0.0000000000      0.6508444444       3
     5173  5146  5148  5170    1  0.0000000000      0.6508444444       3
     5144  5146  5173  5143    1  180.0000000000    1.0041600000       2
     5144  5146  5173  5174    1  180.0000000000    1.0041600000       2
     5147  5146  5173  5143    1  0.0000000000      0.0000000000       1
     5147  5146  5173  5174    1  0.0000000000      0.0000000000       1
     5148  5146  5173  5143    1  180.0000000000    1.0041600000       2
     5148  5146  5173  5174    1  180.0000000000    1.0041600000       2
     2045  2047  2048  2049    1  180.0000000000    15.1670000000      2
     2045  2047  2048  2061    1  180.0000000000    15.1670000000      2
     2056  2047  2048  2049    1  180.0000000000    15.1670000000      2
     2056  2047  2048  2061    1  180.0000000000    15.1670000000      2
     2045  2047  2056  2057    1  180.0000000000    15.1670000000      2
     2048  2047  2056  2055    1  180.0000000000    15.1670000000      2
     2048  2047  2056  2057    1  180.0000000000    15.1670000000      2
     3738  3740  3741  3742    1  0.0000000000      0.0000000000       1
     3738  3740  3741  3743    1  180.0000000000    1.0041600000       2
     3738  3740  3741  3751    1  180.0000000000    1.0041600000       2
     3756  3740  3741  3742    1  0.0000000000      0.0000000000       1
     3756  3740  3741  3743    1  180.0000000000    1.0041600000       2
     3756  3740  3741  3751    1  180.0000000000    1.0041600000       2
     3738  3740  3756  3743    1  180.0000000000    15.1670000000      2
     3738  3740  3756  3757    1  180.0000000000    15.1670000000      2
     3741  3740  3756  3743    1  180.0000000000    15.1670000000      2
     3741  3740  3756  3757    1  180.0000000000    15.1670000000      2
     2049  2054  2055  2056    1  180.0000000000    15.1670000000      2
     3747  2054  2055  3749    1  180.0000000000    15.1670000000      2
     2049  2054  3747  3745    1  180.0000000000    1.0041600000       2
     2055  2054  3747  3745    1  180.0000000000    1.0041600000       2
     2049  2054  3747  3748    1  0.0000000000      0.0000000000       1
     2055  2054  3747  3748    1  0.0000000000      0.0000000000       1
     2049  2054  3747  3749    1  180.0000000000    1.0041600000       2
     2055  2054  3747  3749    1  180.0000000000    1.0041600000       2
     2049  2054  2055  3749    1  180.0000000000    15.1670000000      2
     5150  5152  5153  5154    1  180.0000000000    15.1670000000      2
     5150  5152  5153  5166    1  180.0000000000    15.1670000000      2
     5161  5152  5153  5154    1  180.0000000000    15.1670000000      2
     5161  5152  5153  5166    1  180.0000000000    15.1670000000      2
     5150  5152  5161  5162    1  180.0000000000    15.1670000000      2
     5153  5152  5161  5160    1  180.0000000000    15.1670000000      2
     5153  5152  5161  5162    1  180.0000000000    15.1670000000      2
     3745  3747  3749  3750    1  0.0000000000      0.6508444444       3
     3745  3747  3749  3751    1  0.0000000000      0.6508444444       3
     3748  3747  3749  3750    1  0.0000000000      0.6508444444       3
     2054  3747  3749  3750    1  0.0000000000      0.6508444444       3
     2054  3747  3749  2055    1  0.0000000000      0.6508444444       3
     3745  3747  3749  2055    1  0.0000000000      0.6508444444       3
     3747  3745  3743  3741    1  0.0000000000      2.1756800000       3
     3747  3745  3743  3744    1  0.0000000000      0.5439200000       3
     3747  3745  3743  3756    1  0.0000000000      0.6508444444       3
     3743  3745  3747  3748    1  0.0000000000      0.5439200000       3
     3743  3745  3747  3749    1  0.0000000000      2.1756800000       3
     3746  3745  3747  3748    1  0.0000000000      0.5020800000       3
     3746  3745  3747  3749    1  0.0000000000      0.5439200000       3
     3753  3745  3747  3748    1  0.0000000000      0.5439200000       3
     3753  3745  3747  3749    1  0.0000000000      2.1756800000       3
     3743  3745  3753  3751    1  0.0000000000      0.6508444444       3
     3743  3745  3753  3754    1  0.0000000000      0.6508444444       3
     3743  3745  3753  3755    1  0.0000000000      0.6508444444       3
     3746  3745  3753  3751    1  0.0000000000      0.5439200000       3
     3746  3745  3753  3754    1  0.0000000000      0.5020800000       3
     3746  3745  3753  3755    1  0.0000000000      0.5020800000       3
     3747  3745  3753  3754    1  0.0000000000      0.6508444444       3
     3747  3745  3753  3755    1  0.0000000000      0.6508444444       3
     3743  3745  3747  2054    1  0.0000000000      0.6508444444       3
     3746  3745  3747  2054    1  0.0000000000      0.6508444444       3
     3753  3745  3747  2054    1  0.0000000000      0.6508444444       3
     4943  4945  4946  4947    1  180.0000000000    15.1670000000      2
     4943  4945  4946  4959    1  180.0000000000    15.1670000000      2
     4954  4945  4946  4947    1  180.0000000000    15.1670000000      2
     4954  4945  4946  4959    1  180.0000000000    15.1670000000      2
     4943  4945  4954  4955    1  180.0000000000    15.1670000000      2
     4946  4945  4954  4953    1  180.0000000000    15.1670000000      2
     4946  4945  4954  4955    1  180.0000000000    15.1670000000      2
     5107  5111  5112  5113    1  0.0000000000      0.5439200000       3
     5107  5111  5112  5114    1  0.0000000000      0.5439200000       3
     5107  5111  5112  5115    1  0.0000000000      0.5439200000       3
     5116  5111  5112  5113    1  0.0000000000      0.6508444444       3
     5116  5111  5112  5114    1  0.0000000000      0.6508444444       3
     5116  5111  5112  5115    1  0.0000000000      0.6508444444       3
     5140  5111  5112  5113    1  0.0000000000      0.6508444444       3
     5140  5111  5112  5114    1  0.0000000000      0.6508444444       3
     5140  5111  5112  5115    1  0.0000000000      0.6508444444       3
     5107  5111  5116  5117    1  0.0000000000      0.0000000000       2
     5107  5111  5116  5137    1  180.0000000000    1.0041600000       2
     5112  5111  5116  5117    1  0.0000000000      0.0000000000       2
     5112  5111  5116  5137    1  180.0000000000    1.0041600000       2
     5140  5111  5116  5117    1  0.0000000000      0.0000000000       2
     5140  5111  5116  5137    1  180.0000000000    0.0000000000       2
     5107  5111  5140  5139    1  0.0000000000      0.0000000000       2
     5107  5111  5140  5141    1  180.0000000000    1.0041600000       2
     5112  5111  5140  5139    1  0.0000000000      0.0000000000       2
     5112  5111  5140  5141    1  180.0000000000    1.0041600000       2
     5116  5111  5140  5139    1  0.0000000000      0.0000000000       2
     5116  5111  5140  5141    1  180.0000000000    0.0000000000       2
     5108  5107  5111  5112    1  0.0000000000      0.5439200000       3
     5108  5107  5111  5116    1  0.0000000000      0.6508444444       3
     5108  5107  5111  5140    1  0.0000000000      0.6508444444       3
     5109  5107  5111  5112    1  0.0000000000      0.5439200000       3
     5109  5107  5111  5116    1  0.0000000000      0.6508444444       3
     5109  5107  5111  5140    1  0.0000000000      0.6508444444       3
     5110  5107  5111  5112    1  0.0000000000      0.5439200000       3
     5110  5107  5111  5116    1  0.0000000000      0.6508444444       3
     5110  5107  5111  5140    1  0.0000000000      0.6508444444       3
     6175  6176  6178  6179    1  180.0000000000    15.1670000000      2
     6175  6176  6178  6208    1  180.0000000000    15.1670000000      2
     6177  6176  6178  6179    1  180.0000000000    15.1670000000      2
     6177  6176  6178  6208    1  180.0000000000    15.1670000000      2
     4947  4952  4953  4954    1  180.0000000000    15.1670000000      2
     4947  4952  4953  4575    1  180.0000000000    15.1670000000      2
     4947  4952  4577  4575    1  180.0000000000    1.0041600000       2
     4953  4952  4577  4575    1  180.0000000000    1.0041600000       2
     4947  4952  4577  4578    1  0.0000000000      0.0000000000       1
     4953  4952  4577  4578    1  0.0000000000      0.0000000000       1
     4947  4952  4577  4579    1  180.0000000000    1.0041600000       2
     4953  4952  4577  4579    1  180.0000000000    1.0041600000       2
     2054  2049  2048  2061    1  180.0000000000    15.1670000000      2
     2048  2049  2050  2051    1  0.0000000000      0.0000000000       2
     2048  2049  2050  2052    1  0.0000000000      0.0000000000       2
     2048  2049  2050  2053    1  0.0000000000      0.0000000000       2
     2048  2049  2054  2055    1  180.0000000000    15.1670000000      2
     2050  2049  2054  2055    1  180.0000000000    15.1670000000      2
     2048  2049  2054  3747    1  180.0000000000    15.1670000000      2
     2050  2049  2054  3747    1  180.0000000000    15.1670000000      2
     4939  4941  4943  4944    1  0.0000000000      0.5439200000       3
     4939  4941  4943  4945    1  0.0000000000      0.6508444444       3
     4939  4941  4943  4959    1  0.0000000000      2.1756800000       3
     4942  4941  4943  4944    1  0.0000000000      0.5020800000       3
     4942  4941  4943  4945    1  0.0000000000      0.6508444444       3
     4942  4941  4943  4959    1  0.0000000000      0.5439200000       3
     4963  4941  4943  4944    1  0.0000000000      0.5439200000       3
     4963  4941  4943  4945    1  0.0000000000      0.6508444444       3
     4963  4941  4943  4959    1  0.0000000000      2.1756800000       3
     4939  4941  4963  4961    1  0.0000000000      0.6508444444       3
     4939  4941  4963  4964    1  0.0000000000      0.6508444444       3
     4939  4941  4963  4965    1  0.0000000000      0.6508444444       3
     4942  4941  4963  4961    1  0.0000000000      0.5439200000       3
     4942  4941  4963  4964    1  0.0000000000      0.5020800000       3
     4942  4941  4963  4965    1  0.0000000000      0.5020800000       3
     4943  4941  4963  4961    1  0.0000000000      0.6508444444       3
     4943  4941  4963  4964    1  0.0000000000      0.6508444444       3
     4943  4941  4963  4965    1  0.0000000000      0.6508444444       3
     4945  4946  4947  4948    1  180.0000000000    15.1670000000      2
     4945  4946  4947  4952    1  180.0000000000    15.1670000000      2
     4959  4946  4947  4948    1  180.0000000000    15.1670000000      2
     4945  4946  4959  4943    1  180.0000000000    1.0041600000       2
     4945  4946  4959  4960    1  0.0000000000      0.0000000000       1
     4945  4946  4959  4961    1  180.0000000000    1.0041600000       2
     4947  4946  4959  4943    1  180.0000000000    1.0041600000       2
     4947  4946  4959  4960    1  0.0000000000      0.0000000000       1
     4947  4946  4959  4961    1  180.0000000000    1.0041600000       2
     4575  4573  4571  4569    1  0.0000000000      2.1756800000       3
     4575  4573  4571  4572    1  0.0000000000      0.5439200000       3
     4575  4573  4571  4584    1  0.0000000000      0.6508444444       3
     4571  4573  4575  4576    1  0.0000000000      0.5439200000       3
     4571  4573  4575  4577    1  0.0000000000      2.1756800000       3
     4574  4573  4575  4576    1  0.0000000000      0.5020800000       3
     4574  4573  4575  4577    1  0.0000000000      0.5439200000       3
     4581  4573  4575  4576    1  0.0000000000      0.5439200000       3
     4581  4573  4575  4577    1  0.0000000000      2.1756800000       3
     4571  4573  4581  4579    1  0.0000000000      0.6508444444       3
     4571  4573  4581  4582    1  0.0000000000      0.6508444444       3
     4571  4573  4581  4583    1  0.0000000000      0.6508444444       3
     4574  4573  4581  4579    1  0.0000000000      0.5439200000       3
     4574  4573  4581  4582    1  0.0000000000      0.5020800000       3
     4574  4573  4581  4583    1  0.0000000000      0.5020800000       3
     4575  4573  4581  4582    1  0.0000000000      0.6508444444       3
     4575  4573  4581  4583    1  0.0000000000      0.6508444444       3
     4571  4573  4575  4953    1  0.0000000000      0.6508444444       3
     4574  4573  4575  4953    1  0.0000000000      0.6508444444       3
     4581  4573  4575  4953    1  0.0000000000      0.6508444444       3
     6247  6248  6250  6251    1  0.0000000000      0.6508444444       3
     6247  6248  6250  6252    1  0.0000000000      0.6508444444       3
     6247  6248  6250  6277    1  0.0000000000      0.6508444444       3
     6249  6248  6250  6251    1  0.0000000000      0.6508444444       3
     6249  6248  6250  6252    1  0.0000000000      0.6508444444       3
     6249  6248  6250  6277    1  0.0000000000      0.6508444444       3
     6272  6248  6250  6251    1  0.0000000000      0.6508444444       3
     6272  6248  6250  6252    1  0.0000000000      0.6508444444       3
     6272  6248  6250  6277    1  0.0000000000      0.6508444444       3
     6247  6248  6272  6270    1  0.0000000000      0.6508444444       3
     6247  6248  6272  6273    1  0.0000000000      0.6508444444       3
     6247  6248  6272  6274    1  0.0000000000      0.6508444444       3
     6249  6248  6272  6270    1  0.0000000000      0.5439200000       3
     6249  6248  6272  6273    1  0.0000000000      0.5020800000       3
     6249  6248  6272  6274    1  0.0000000000      0.5439200000       3
     6250  6248  6272  6270    1  0.0000000000      2.1756800000       3
     6250  6248  6272  6273    1  0.0000000000      0.5439200000       3
     6250  6248  6272  6274    1  0.0000000000      2.1756800000       3
     5117  5139  5140  5111    1  180.0000000000    15.1670000000      2
     5117  5139  5140  5141    1  180.0000000000    15.1670000000      2
     5174  5139  5140  5111    1  180.0000000000    15.1670000000      2
     5174  5139  5140  5141    1  180.0000000000    15.1670000000      2
     5117  5139  5174  5173    1  180.0000000000    15.1670000000      2
     5117  5139  5174  5175    1  180.0000000000    15.1670000000      2
     5140  5139  5174  5173    1  180.0000000000    15.1670000000      2
     5140  5139  5174  5175    1  180.0000000000    15.1670000000      2
     3764  3788  3790  3768    1  0.0000000000      0.6508444444       3
     3764  3788  3790  3791    1  0.0000000000      0.6508444444       3
     3764  3788  3790  3792    1  0.0000000000      0.6508444444       3
     3786  3788  3790  3768    1  0.0000000000      0.6508444444       3
     3786  3788  3790  3791    1  0.0000000000      0.6508444444       3
     3786  3788  3790  3792    1  0.0000000000      0.6508444444       3
     3789  3788  3790  3768    1  0.0000000000      0.5439200000       3
     3789  3788  3790  3791    1  0.0000000000      0.5020800000       3
     3789  3788  3790  3792    1  0.0000000000      0.5020800000       3
     3770  3786  3788  3764    1  0.0000000000      2.1756800000       3
     3770  3786  3788  3789    1  0.0000000000      0.5439200000       3
     3770  3786  3788  3790    1  0.0000000000      2.1756800000       3
     3773  3786  3788  3764    1  0.0000000000      0.6508444444       3
     3773  3786  3788  3789    1  0.0000000000      0.6508444444       3
     3773  3786  3788  3790    1  0.0000000000      0.6508444444       3
     3787  3786  3788  3764    1  0.0000000000      0.5439200000       3
     3787  3786  3788  3789    1  0.0000000000      0.5020800000       3
     3787  3786  3788  3790    1  0.0000000000      0.5439200000       3
     1726  1730  1731  1732    1  0.0000000000      0.5439200000       3
     1726  1730  1731  1733    1  0.0000000000      0.5439200000       3
     1726  1730  1731  1734    1  0.0000000000      0.5439200000       3
     1735  1730  1731  1732    1  0.0000000000      0.6508444444       3
     1735  1730  1731  1733    1  0.0000000000      0.6508444444       3
     1735  1730  1731  1734    1  0.0000000000      0.6508444444       3
     1759  1730  1731  1732    1  0.0000000000      0.6508444444       3
     1759  1730  1731  1733    1  0.0000000000      0.6508444444       3
     1759  1730  1731  1734    1  0.0000000000      0.6508444444       3
     1726  1730  1735  1736    1  0.0000000000      0.0000000000       2
     1726  1730  1735  1756    1  180.0000000000    1.0041600000       2
     1731  1730  1735  1736    1  0.0000000000      0.0000000000       2
     1731  1730  1735  1756    1  180.0000000000    1.0041600000       2
     1759  1730  1735  1736    1  0.0000000000      0.0000000000       2
     1759  1730  1735  1756    1  180.0000000000    0.0000000000       2
     1726  1730  1759  1758    1  0.0000000000      0.0000000000       2
     1726  1730  1759  1760    1  180.0000000000    1.0041600000       2
     1731  1730  1759  1758    1  0.0000000000      0.0000000000       2
     1731  1730  1759  1760    1  180.0000000000    1.0041600000       2
     1735  1730  1759  1758    1  0.0000000000      0.0000000000       2
     1735  1730  1759  1760    1  180.0000000000    0.0000000000       2
     1727  1726  1730  1731    1  0.0000000000      0.5439200000       3
     1727  1726  1730  1735    1  0.0000000000      0.6508444444       3
     1727  1726  1730  1759    1  0.0000000000      0.6508444444       3
     1728  1726  1730  1731    1  0.0000000000      0.5439200000       3
     1728  1726  1730  1735    1  0.0000000000      0.6508444444       3
     1728  1726  1730  1759    1  0.0000000000      0.6508444444       3
     1729  1726  1730  1731    1  0.0000000000      0.5439200000       3
     1729  1726  1730  1735    1  0.0000000000      0.6508444444       3
     1729  1726  1730  1759    1  0.0000000000      0.6508444444       3
     1730  1759  1760  1761    1  180.0000000000    15.1670000000      2
     1730  1759  1760  1762    1  180.0000000000    15.1670000000      2
     1758  1759  1760  1761    1  180.0000000000    15.1670000000      2
     1758  1759  1760  1762    1  180.0000000000    15.1670000000      2
     6146  6175  6176  6177    1  180.0000000000    15.1670000000      2
     6146  6175  6176  6178    1  180.0000000000    15.1670000000      2
     6174  6175  6176  6177    1  180.0000000000    15.1670000000      2
     6174  6175  6176  6178    1  180.0000000000    15.1670000000      2
     6143  6142  6146  6147    1  0.0000000000      0.5439200000       3
     6143  6142  6146  6151    1  0.0000000000      0.6508444444       3
     6143  6142  6146  6175    1  0.0000000000      0.6508444444       3
     6144  6142  6146  6147    1  0.0000000000      0.5439200000       3
     6144  6142  6146  6151    1  0.0000000000      0.6508444444       3
     6144  6142  6146  6175    1  0.0000000000      0.6508444444       3
     6145  6142  6146  6147    1  0.0000000000      0.5439200000       3
     6145  6142  6146  6151    1  0.0000000000      0.6508444444       3
     6145  6142  6146  6175    1  0.0000000000      0.6508444444       3
     2245  2246  2248  2249    1  0.0000000000      0.6508444444       3
     2245  2246  2248  2250    1  0.0000000000      0.6508444444       3
     2245  2246  2248  2275    1  0.0000000000      0.6508444444       3
     2247  2246  2248  2249    1  0.0000000000      0.6508444444       3
     2247  2246  2248  2250    1  0.0000000000      0.6508444444       3
     2247  2246  2248  2275    1  0.0000000000      0.6508444444       3
     2270  2246  2248  2249    1  0.0000000000      0.6508444444       3
     2270  2246  2248  2250    1  0.0000000000      0.6508444444       3
     2270  2246  2248  2275    1  0.0000000000      0.6508444444       3
     2245  2246  2270  2268    1  0.0000000000      0.6508444444       3
     2245  2246  2270  2271    1  0.0000000000      0.6508444444       3
     2245  2246  2270  2272    1  0.0000000000      0.6508444444       3
     2247  2246  2270  2268    1  0.0000000000      0.5439200000       3
     2247  2246  2270  2271    1  0.0000000000      0.5020800000       3
     2247  2246  2270  2272    1  0.0000000000      0.5439200000       3
     2248  2246  2270  2268    1  0.0000000000      2.1756800000       3
     2248  2246  2270  2271    1  0.0000000000      0.5439200000       3
     2248  2246  2270  2272    1  0.0000000000      2.1756800000       3
     3737  3738  3740  3741    1  180.0000000000    15.1670000000      2
     3737  3738  3740  3756    1  180.0000000000    15.1670000000      2
     3739  3738  3740  3741    1  180.0000000000    15.1670000000      2
     3739  3738  3740  3756    1  180.0000000000    15.1670000000      2
     1762  1792  1793  1758    1  180.0000000000    15.1670000000      2
     1762  1792  1793  1794    1  180.0000000000    15.1670000000      2
     1765  1792  1793  1758    1  180.0000000000    15.1670000000      2
     1765  1792  1793  1794    1  180.0000000000    15.1670000000      2
     4937  4961  4963  4941    1  0.0000000000      0.6508444444       3
     4937  4961  4963  4964    1  0.0000000000      0.6508444444       3
     4937  4961  4963  4965    1  0.0000000000      0.6508444444       3
     4959  4961  4963  4941    1  0.0000000000      0.6508444444       3
     4959  4961  4963  4964    1  0.0000000000      0.6508444444       3
     4959  4961  4963  4965    1  0.0000000000      0.6508444444       3
     4962  4961  4963  4941    1  0.0000000000      0.5439200000       3
     4962  4961  4963  4964    1  0.0000000000      0.5020800000       3
     4962  4961  4963  4965    1  0.0000000000      0.5020800000       3
     3761  3763  3764  3765    1  0.0000000000      0.0000000000       1
     3761  3763  3764  3766    1  180.0000000000    1.0041600000       2
     3761  3763  3764  3788    1  180.0000000000    1.0041600000       2
     3793  3763  3764  3765    1  0.0000000000      0.0000000000       1
     3793  3763  3764  3766    1  180.0000000000    1.0041600000       2
     3793  3763  3764  3788    1  180.0000000000    1.0041600000       2
     3761  3763  3793  3766    1  180.0000000000    15.1670000000      2
     3761  3763  3793  3794    1  180.0000000000    15.1670000000      2
     3764  3763  3793  3766    1  180.0000000000    15.1670000000      2
     3764  3763  3793  3794    1  180.0000000000    15.1670000000      2
     1775  1774  1773  1778    1  0.0000000000      0.0000000000       2
     1776  1774  1773  1778    1  0.0000000000      0.0000000000       2
     1777  1774  1773  1778    1  0.0000000000      0.0000000000       2
     1771  1772  1773  1774    1  180.0000000000    15.1670000000      2
     1771  1772  1773  1778    1  180.0000000000    15.1670000000      2
     1785  1772  1773  1774    1  180.0000000000    15.1670000000      2
     1771  1772  1785  1769    1  180.0000000000    1.0041600000       2
     1771  1772  1785  1786    1  0.0000000000      0.0000000000       1
     1771  1772  1785  1787    1  180.0000000000    1.0041600000       2
     1773  1772  1785  1769    1  180.0000000000    1.0041600000       2
     1773  1772  1785  1786    1  0.0000000000      0.0000000000       1
     1773  1772  1785  1787    1  180.0000000000    1.0041600000       2
     3763  3764  3766  3767    1  0.0000000000      0.6508444444       3
     3763  3764  3766  3768    1  0.0000000000      0.6508444444       3
     3763  3764  3766  3793    1  0.0000000000      0.6508444444       3
     3765  3764  3766  3767    1  0.0000000000      0.6508444444       3
     3765  3764  3766  3768    1  0.0000000000      0.6508444444       3
     3765  3764  3766  3793    1  0.0000000000      0.6508444444       3
     3788  3764  3766  3767    1  0.0000000000      0.6508444444       3
     3788  3764  3766  3768    1  0.0000000000      0.6508444444       3
     3788  3764  3766  3793    1  0.0000000000      0.6508444444       3
     3763  3764  3788  3786    1  0.0000000000      0.6508444444       3
     3763  3764  3788  3789    1  0.0000000000      0.6508444444       3
     3763  3764  3788  3790    1  0.0000000000      0.6508444444       3
     3765  3764  3788  3786    1  0.0000000000      0.5439200000       3
     3765  3764  3788  3789    1  0.0000000000      0.5020800000       3
     3765  3764  3788  3790    1  0.0000000000      0.5439200000       3
     3766  3764  3788  3786    1  0.0000000000      2.1756800000       3
     3766  3764  3788  3789    1  0.0000000000      0.5439200000       3
     3766  3764  3788  3790    1  0.0000000000      2.1756800000       3
     4943  4959  4961  4937    1  0.0000000000      2.1756800000       3
     4943  4959  4961  4962    1  0.0000000000      0.5439200000       3
     4943  4959  4961  4963    1  0.0000000000      2.1756800000       3
     4946  4959  4961  4937    1  0.0000000000      0.6508444444       3
     4946  4959  4961  4962    1  0.0000000000      0.6508444444       3
     4946  4959  4961  4963    1  0.0000000000      0.6508444444       3
     4960  4959  4961  4937    1  0.0000000000      0.5439200000       3
     4960  4959  4961  4962    1  0.0000000000      0.5020800000       3
     4960  4959  4961  4963    1  0.0000000000      0.5439200000       3
     3780  3781  3772  3770    1  180.0000000000    15.1670000000      2
     3772  3781  3782  3783    1  0.0000000000      0.0000000000       2
     3772  3781  3782  3784    1  0.0000000000      0.0000000000       2
     3772  3781  3782  3785    1  0.0000000000      0.0000000000       2
     3782  3781  3780  3779    1  180.0000000000    15.1670000000      2
     3772  3781  3780  5058    1  180.0000000000    15.1670000000      2
     3782  3781  3780  5058    1  180.0000000000    15.1670000000      2
     3764  3766  3768  3769    1  0.0000000000      0.5439200000       3
     3764  3766  3768  3770    1  0.0000000000      2.1756800000       3
     3764  3766  3768  3790    1  0.0000000000      2.1756800000       3
     3767  3766  3768  3769    1  0.0000000000      0.5020800000       3
     3767  3766  3768  3770    1  0.0000000000      0.5439200000       3
     3767  3766  3768  3790    1  0.0000000000      0.5439200000       3
     3793  3766  3768  3769    1  0.0000000000      0.6508444444       3
     3793  3766  3768  3770    1  0.0000000000      0.6508444444       3
     3793  3766  3768  3790    1  0.0000000000      0.6508444444       3
     3764  3766  3793  3763    1  180.0000000000    1.0041600000       2
     3764  3766  3793  3794    1  180.0000000000    1.0041600000       2
     3767  3766  3793  3763    1  0.0000000000      0.0000000000       1
     3767  3766  3793  3794    1  0.0000000000      0.0000000000       1
     3768  3766  3793  3763    1  180.0000000000    1.0041600000       2
     3768  3766  3793  3794    1  180.0000000000    1.0041600000       2
     4952  4947  4946  4959    1  180.0000000000    15.1670000000      2
     4946  4947  4948  4949    1  0.0000000000      0.0000000000       2
     4946  4947  4948  4950    1  0.0000000000      0.0000000000       2
     4946  4947  4948  4951    1  0.0000000000      0.0000000000       2
     4946  4947  4952  4953    1  180.0000000000    15.1670000000      2
     4948  4947  4952  4953    1  180.0000000000    15.1670000000      2
     4946  4947  4952  4577    1  180.0000000000    15.1670000000      2
     4948  4947  4952  4577    1  180.0000000000    15.1670000000      2
     3766  3768  3770  3771    1  0.0000000000      0.5439200000       3
     3766  3768  3770  3772    1  0.0000000000      0.6508444444       3
     3766  3768  3770  3786    1  0.0000000000      2.1756800000       3
     3769  3768  3770  3771    1  0.0000000000      0.5020800000       3
     3769  3768  3770  3772    1  0.0000000000      0.6508444444       3
     3769  3768  3770  3786    1  0.0000000000      0.5439200000       3
     3790  3768  3770  3771    1  0.0000000000      0.5439200000       3
     3790  3768  3770  3772    1  0.0000000000      0.6508444444       3
     3790  3768  3770  3786    1  0.0000000000      2.1756800000       3
     3766  3768  3790  3788    1  0.0000000000      0.6508444444       3
     3766  3768  3790  3791    1  0.0000000000      0.6508444444       3
     3766  3768  3790  3792    1  0.0000000000      0.6508444444       3
     3769  3768  3790  3788    1  0.0000000000      0.5439200000       3
     3769  3768  3790  3791    1  0.0000000000      0.5020800000       3
     3769  3768  3790  3792    1  0.0000000000      0.5020800000       3
     3770  3768  3790  3788    1  0.0000000000      0.6508444444       3
     3770  3768  3790  3791    1  0.0000000000      0.6508444444       3
     3770  3768  3790  3792    1  0.0000000000      0.6508444444       3
     3783  3782  3781  3780    1  0.0000000000      0.0000000000       2
     3784  3782  3781  3780    1  0.0000000000      0.0000000000       2
     3785  3782  3781  3780    1  0.0000000000      0.0000000000       2
     3731  3736  3737  3738    1  180.0000000000    15.1670000000      2
     3731  3736  3737  3759    1  180.0000000000    15.1670000000      2
     3757  3736  3737  3738    1  180.0000000000    15.1670000000      2
     3757  3736  3737  3759    1  180.0000000000    15.1670000000      2
     3731  3736  3757  3756    1  180.0000000000    15.1670000000      2
     3731  3736  3757  3758    1  180.0000000000    15.1670000000      2
     3737  3736  3757  3756    1  180.0000000000    15.1670000000      2
     3737  3736  3757  3758    1  180.0000000000    15.1670000000      2
     3728  3727  3731  3732    1  0.0000000000      0.5439200000       3
     3728  3727  3731  3736    1  0.0000000000      0.6508444444       3
     3728  3727  3731  3760    1  0.0000000000      0.6508444444       3
     3729  3727  3731  3732    1  0.0000000000      0.5439200000       3
     3729  3727  3731  3736    1  0.0000000000      0.6508444444       3
     3729  3727  3731  3760    1  0.0000000000      0.6508444444       3
     3730  3727  3731  3732    1  0.0000000000      0.5439200000       3
     3730  3727  3731  3736    1  0.0000000000      0.6508444444       3
     3730  3727  3731  3760    1  0.0000000000      0.6508444444       3
     1762  1763  1765  1766    1  0.0000000000      0.6508444444       3
     1762  1763  1765  1767    1  0.0000000000      0.6508444444       3
     1762  1763  1765  1792    1  0.0000000000      0.6508444444       3
     1764  1763  1765  1766    1  0.0000000000      0.6508444444       3
     1764  1763  1765  1767    1  0.0000000000      0.6508444444       3
     1764  1763  1765  1792    1  0.0000000000      0.6508444444       3
     1787  1763  1765  1766    1  0.0000000000      0.6508444444       3
     1787  1763  1765  1767    1  0.0000000000      0.6508444444       3
     1787  1763  1765  1792    1  0.0000000000      0.6508444444       3
     1762  1763  1787  1785    1  0.0000000000      0.6508444444       3
     1762  1763  1787  1788    1  0.0000000000      0.6508444444       3
     1762  1763  1787  1789    1  0.0000000000      0.6508444444       3
     1764  1763  1787  1785    1  0.0000000000      0.5439200000       3
     1764  1763  1787  1788    1  0.0000000000      0.5020800000       3
     1764  1763  1787  1789    1  0.0000000000      0.5439200000       3
     1765  1763  1787  1785    1  0.0000000000      2.1756800000       3
     1765  1763  1787  1788    1  0.0000000000      0.5439200000       3
     1765  1763  1787  1789    1  0.0000000000      2.1756800000       3
     3736  3737  3738  3739    1  180.0000000000    15.1670000000      2
     3736  3737  3738  3740    1  180.0000000000    15.1670000000      2
     3759  3737  3738  3739    1  180.0000000000    15.1670000000      2
     3759  3737  3738  3740    1  180.0000000000    15.1670000000      2
     3736  3737  3759  3760    1  180.0000000000    4.1840000000       2
     3736  3737  3759  3794    1  180.0000000000    4.1840000000       2
     3738  3737  3759  3760    1  180.0000000000    4.1840000000       2
     3738  3737  3759  3794    1  180.0000000000    4.1840000000       2
     3731  3760  3761  3762    1  180.0000000000    15.1670000000      2
     3731  3760  3761  3763    1  180.0000000000    15.1670000000      2
     3759  3760  3761  3762    1  180.0000000000    15.1670000000      2
     3759  3760  3761  3763    1  180.0000000000    15.1670000000      2
     3763  3793  3794  3759    1  180.0000000000    15.1670000000      2
     3763  3793  3794  3795    1  180.0000000000    15.1670000000      2
     3766  3793  3794  3759    1  180.0000000000    15.1670000000      2
     3766  3793  3794  3795    1  180.0000000000    15.1670000000      2
     6146  6151  6152  6153    1  180.0000000000    15.1670000000      2
     6146  6151  6152  6174    1  180.0000000000    15.1670000000      2
     6172  6151  6152  6153    1  180.0000000000    15.1670000000      2
     6172  6151  6152  6174    1  180.0000000000    15.1670000000      2
     6146  6151  6172  6171    1  180.0000000000    15.1670000000      2
     6146  6151  6172  6173    1  180.0000000000    15.1670000000      2
     6152  6151  6172  6171    1  180.0000000000    15.1670000000      2
     6152  6151  6172  6173    1  180.0000000000    15.1670000000      2
     3770  3772  3773  3774    1  180.0000000000    15.1670000000      2
     3770  3772  3773  3786    1  180.0000000000    15.1670000000      2
     3781  3772  3773  3774    1  180.0000000000    15.1670000000      2
     3781  3772  3773  3786    1  180.0000000000    15.1670000000      2
     3770  3772  3781  3782    1  180.0000000000    15.1670000000      2
     3773  3772  3781  3780    1  180.0000000000    15.1670000000      2
     3773  3772  3781  3782    1  180.0000000000    15.1670000000      2
     1778  1773  1772  1785    1  180.0000000000    15.1670000000      2
     1772  1773  1774  1775    1  0.0000000000      0.0000000000       2
     1772  1773  1774  1776    1  0.0000000000      0.0000000000       2
     1772  1773  1774  1777    1  0.0000000000      0.0000000000       2
     1772  1773  1778  1779    1  180.0000000000    15.1670000000      2
     1774  1773  1778  1779    1  180.0000000000    15.1670000000      2
     1772  1773  1778  2645    1  180.0000000000    15.1670000000      2
     1774  1773  1778  2645    1  180.0000000000    15.1670000000      2
     1759  1760  1762  1763    1  180.0000000000    15.1670000000      2
     1759  1760  1762  1792    1  180.0000000000    15.1670000000      2
     1761  1760  1762  1763    1  180.0000000000    15.1670000000      2
     1761  1760  1762  1792    1  180.0000000000    15.1670000000      2
     3768  3770  3772  3773    1  180.0000000000    1.0041600000       2
     3768  3770  3772  3781    1  180.0000000000    1.0041600000       2
     3771  3770  3772  3773    1  0.0000000000      0.0000000000       1
     3771  3770  3772  3781    1  0.0000000000      0.0000000000       1
     3786  3770  3772  3773    1  180.0000000000    1.0041600000       2
     3786  3770  3772  3781    1  180.0000000000    1.0041600000       2
     3768  3770  3786  3773    1  0.0000000000      0.6508444444       3
     3768  3770  3786  3787    1  0.0000000000      0.6508444444       3
     3768  3770  3786  3788    1  0.0000000000      0.6508444444       3
     3771  3770  3786  3773    1  0.0000000000      0.6508444444       3
     3771  3770  3786  3787    1  0.0000000000      0.6508444444       3
     3771  3770  3786  3788    1  0.0000000000      0.6508444444       3
     3772  3770  3786  3773    1  0.0000000000      0.6508444444       3
     3772  3770  3786  3787    1  0.0000000000      0.6508444444       3
     3772  3770  3786  3788    1  0.0000000000      0.6508444444       3
     3760  3761  3763  3764    1  180.0000000000    15.1670000000      2
     3760  3761  3763  3793    1  180.0000000000    15.1670000000      2
     3762  3761  3763  3764    1  180.0000000000    15.1670000000      2
     3762  3761  3763  3793    1  180.0000000000    15.1670000000      2
     3727  3731  3732  3733    1  0.0000000000      0.5439200000       3
     3727  3731  3732  3734    1  0.0000000000      0.5439200000       3
     3727  3731  3732  3735    1  0.0000000000      0.5439200000       3
     3736  3731  3732  3733    1  0.0000000000      0.6508444444       3
     3736  3731  3732  3734    1  0.0000000000      0.6508444444       3
     3736  3731  3732  3735    1  0.0000000000      0.6508444444       3
     3760  3731  3732  3733    1  0.0000000000      0.6508444444       3
     3760  3731  3732  3734    1  0.0000000000      0.6508444444       3
     3760  3731  3732  3735    1  0.0000000000      0.6508444444       3
     3727  3731  3736  3737    1  0.0000000000      0.0000000000       2
     3727  3731  3736  3757    1  180.0000000000    1.0041600000       2
     3732  3731  3736  3737    1  0.0000000000      0.0000000000       2
     3732  3731  3736  3757    1  180.0000000000    1.0041600000       2
     3760  3731  3736  3737    1  0.0000000000      0.0000000000       2
     3760  3731  3736  3757    1  180.0000000000    0.0000000000       2
     3727  3731  3760  3759    1  0.0000000000      0.0000000000       2
     3727  3731  3760  3761    1  180.0000000000    1.0041600000       2
     3732  3731  3760  3759    1  0.0000000000      0.0000000000       2
     3732  3731  3760  3761    1  180.0000000000    1.0041600000       2
     3736  3731  3760  3759    1  0.0000000000      0.0000000000       2
     3736  3731  3760  3761    1  180.0000000000    0.0000000000       2
     6142  6146  6147  6148    1  0.0000000000      0.5439200000       3
     6142  6146  6147  6149    1  0.0000000000      0.5439200000       3
     6142  6146  6147  6150    1  0.0000000000      0.5439200000       3
     6151  6146  6147  6148    1  0.0000000000      0.6508444444       3
     6151  6146  6147  6149    1  0.0000000000      0.6508444444       3
     6151  6146  6147  6150    1  0.0000000000      0.6508444444       3
     6175  6146  6147  6148    1  0.0000000000      0.6508444444       3
     6175  6146  6147  6149    1  0.0000000000      0.6508444444       3
     6175  6146  6147  6150    1  0.0000000000      0.6508444444       3
     6142  6146  6151  6152    1  0.0000000000      0.0000000000       2
     6142  6146  6151  6172    1  180.0000000000    1.0041600000       2
     6147  6146  6151  6152    1  0.0000000000      0.0000000000       2
     6147  6146  6151  6172    1  180.0000000000    1.0041600000       2
     6175  6146  6151  6152    1  0.0000000000      0.0000000000       2
     6175  6146  6151  6172    1  180.0000000000    0.0000000000       2
     6142  6146  6175  6174    1  0.0000000000      0.0000000000       2
     6142  6146  6175  6176    1  180.0000000000    1.0041600000       2
     6147  6146  6175  6174    1  0.0000000000      0.0000000000       2
     6147  6146  6175  6176    1  180.0000000000    1.0041600000       2
     6151  6146  6175  6174    1  0.0000000000      0.0000000000       2
     6151  6146  6175  6176    1  180.0000000000    0.0000000000       2
     1760  1762  1763  1764    1  0.0000000000      0.0000000000       1
     1760  1762  1763  1765    1  180.0000000000    1.0041600000       2
     1760  1762  1763  1787    1  180.0000000000    1.0041600000       2
     1792  1762  1763  1764    1  0.0000000000      0.0000000000       1
     1792  1762  1763  1765    1  180.0000000000    1.0041600000       2
     1792  1762  1763  1787    1  180.0000000000    1.0041600000       2
     1760  1762  1792  1765    1  180.0000000000    15.1670000000      2
     1760  1762  1792  1793    1  180.0000000000    15.1670000000      2
     1763  1762  1792  1765    1  180.0000000000    15.1670000000      2
     1763  1762  1792  1793    1  180.0000000000    15.1670000000      2
     3737  3759  3760  3731    1  180.0000000000    15.1670000000      2
     3737  3759  3760  3761    1  180.0000000000    15.1670000000      2
     3794  3759  3760  3731    1  180.0000000000    15.1670000000      2
     3794  3759  3760  3761    1  180.0000000000    15.1670000000      2
     3737  3759  3794  3793    1  180.0000000000    15.1670000000      2
     3737  3759  3794  3795    1  180.0000000000    15.1670000000      2
     3760  3759  3794  3793    1  180.0000000000    15.1670000000      2
     3760  3759  3794  3795    1  180.0000000000    15.1670000000      2
     3772  3773  3774  3775    1  180.0000000000    15.1670000000      2
     3772  3773  3774  3779    1  180.0000000000    15.1670000000      2
     3786  3773  3774  3775    1  180.0000000000    15.1670000000      2
     3772  3773  3786  3770    1  180.0000000000    1.0041600000       2
     3772  3773  3786  3787    1  0.0000000000      0.0000000000       1
     3772  3773  3786  3788    1  180.0000000000    1.0041600000       2
     3774  3773  3786  3770    1  180.0000000000    1.0041600000       2
     3774  3773  3786  3787    1  0.0000000000      0.0000000000       1
     3774  3773  3786  3788    1  180.0000000000    1.0041600000       2
     4564  4565  4566  4567    1  180.0000000000    15.1670000000      2
     4564  4565  4566  4568    1  180.0000000000    15.1670000000      2
     4587  4565  4566  4567    1  180.0000000000    15.1670000000      2
     4587  4565  4566  4568    1  180.0000000000    15.1670000000      2
     4564  4565  4587  4588    1  180.0000000000    4.1840000000       2
     4564  4565  4587  4622    1  180.0000000000    4.1840000000       2
     4566  4565  4587  4588    1  180.0000000000    4.1840000000       2
     4566  4565  4587  4622    1  180.0000000000    4.1840000000       2
     4565  4566  4568  4569    1  180.0000000000    15.1670000000      2
     4565  4566  4568  4584    1  180.0000000000    15.1670000000      2
     4567  4566  4568  4569    1  180.0000000000    15.1670000000      2
     4567  4566  4568  4584    1  180.0000000000    15.1670000000      2
     4566  4568  4569  4570    1  0.0000000000      0.0000000000       1
     4566  4568  4569  4571    1  180.0000000000    1.0041600000       2
     4566  4568  4569  4579    1  180.0000000000    1.0041600000       2
     4584  4568  4569  4570    1  0.0000000000      0.0000000000       1
     4584  4568  4569  4571    1  180.0000000000    1.0041600000       2
     4584  4568  4569  4579    1  180.0000000000    1.0041600000       2
     4566  4568  4584  4571    1  180.0000000000    15.1670000000      2
     4566  4568  4584  4585    1  180.0000000000    15.1670000000      2
     4569  4568  4584  4571    1  180.0000000000    15.1670000000      2
     4569  4568  4584  4585    1  180.0000000000    15.1670000000      2
     4565  4587  4588  4559    1  180.0000000000    15.1670000000      2
     4565  4587  4588  4589    1  180.0000000000    15.1670000000      2
     4622  4587  4588  4559    1  180.0000000000    15.1670000000      2
     4622  4587  4588  4589    1  180.0000000000    15.1670000000      2
     4565  4587  4622  4621    1  180.0000000000    15.1670000000      2
     4565  4587  4622  4623    1  180.0000000000    15.1670000000      2
     4588  4587  4622  4621    1  180.0000000000    15.1670000000      2
     4588  4587  4622  4623    1  180.0000000000    15.1670000000      2
     4592  4594  4596  4597    1  0.0000000000      0.5439200000       3
     4592  4594  4596  4598    1  0.0000000000      2.1756800000       3
     4592  4594  4596  4618    1  0.0000000000      2.1756800000       3
     4595  4594  4596  4597    1  0.0000000000      0.5020800000       3
     4595  4594  4596  4598    1  0.0000000000      0.5439200000       3
     4595  4594  4596  4618    1  0.0000000000      0.5439200000       3
     4621  4594  4596  4597    1  0.0000000000      0.6508444444       3
     4621  4594  4596  4598    1  0.0000000000      0.6508444444       3
     4621  4594  4596  4618    1  0.0000000000      0.6508444444       3
     4592  4594  4621  4591    1  180.0000000000    1.0041600000       2
     4592  4594  4621  4622    1  180.0000000000    1.0041600000       2
     4595  4594  4621  4591    1  0.0000000000      0.0000000000       1
     4595  4594  4621  4622    1  0.0000000000      0.0000000000       1
     4596  4594  4621  4591    1  180.0000000000    1.0041600000       2
     4596  4594  4621  4622    1  180.0000000000    1.0041600000       2
     4591  4621  4622  4587    1  180.0000000000    15.1670000000      2
     4591  4621  4622  4623    1  180.0000000000    15.1670000000      2
     4594  4621  4622  4587    1  180.0000000000    15.1670000000      2
     4594  4621  4622  4623    1  180.0000000000    15.1670000000      2
     4559  4564  4565  4566    1  180.0000000000    15.1670000000      2
     4559  4564  4565  4587    1  180.0000000000    15.1670000000      2
     4585  4564  4565  4566    1  180.0000000000    15.1670000000      2
     4585  4564  4565  4587    1  180.0000000000    15.1670000000      2
     4559  4564  4585  4584    1  180.0000000000    15.1670000000      2
     4559  4564  4585  4586    1  180.0000000000    15.1670000000      2
     4565  4564  4585  4584    1  180.0000000000    15.1670000000      2
     4565  4564  4585  4586    1  180.0000000000    15.1670000000      2
     1105  1109  1110  1111    1  0.0000000000      0.5439200000       3
     1105  1109  1110  1112    1  0.0000000000      0.5439200000       3
     1105  1109  1110  1113    1  0.0000000000      0.5439200000       3
     1114  1109  1110  1111    1  0.0000000000      0.6508444444       3
     1114  1109  1110  1112    1  0.0000000000      0.6508444444       3
     1114  1109  1110  1113    1  0.0000000000      0.6508444444       3
     1138  1109  1110  1111    1  0.0000000000      0.6508444444       3
     1138  1109  1110  1112    1  0.0000000000      0.6508444444       3
     1138  1109  1110  1113    1  0.0000000000      0.6508444444       3
     1105  1109  1114  1115    1  0.0000000000      0.0000000000       2
     1105  1109  1114  1135    1  180.0000000000    1.0041600000       2
     1110  1109  1114  1115    1  0.0000000000      0.0000000000       2
     1110  1109  1114  1135    1  180.0000000000    1.0041600000       2
     1138  1109  1114  1115    1  0.0000000000      0.0000000000       2
     1138  1109  1114  1135    1  180.0000000000    0.0000000000       2
     1105  1109  1138  1137    1  0.0000000000      0.0000000000       2
     1105  1109  1138  1139    1  180.0000000000    1.0041600000       2
     1110  1109  1138  1137    1  0.0000000000      0.0000000000       2
     1110  1109  1138  1139    1  180.0000000000    1.0041600000       2
     1114  1109  1138  1137    1  0.0000000000      0.0000000000       2
     1114  1109  1138  1139    1  180.0000000000    0.0000000000       2
     1115  1137  1138  1109    1  180.0000000000    15.1670000000      2
     1115  1137  1138  1139    1  180.0000000000    15.1670000000      2
     1172  1137  1138  1109    1  180.0000000000    15.1670000000      2
     1172  1137  1138  1139    1  180.0000000000    15.1670000000      2
     1115  1137  1172  1171    1  180.0000000000    15.1670000000      2
     1115  1137  1172  1173    1  180.0000000000    15.1670000000      2
     1138  1137  1172  1171    1  180.0000000000    15.1670000000      2
     1138  1137  1172  1173    1  180.0000000000    15.1670000000      2
     1114  1115  1116  1117    1  180.0000000000    15.1670000000      2
     1114  1115  1116  1118    1  180.0000000000    15.1670000000      2
     1137  1115  1116  1117    1  180.0000000000    15.1670000000      2
     1137  1115  1116  1118    1  180.0000000000    15.1670000000      2
     1114  1115  1137  1138    1  180.0000000000    4.1840000000       2
     1114  1115  1137  1172    1  180.0000000000    4.1840000000       2
     1116  1115  1137  1138    1  180.0000000000    4.1840000000       2
     1116  1115  1137  1172    1  180.0000000000    4.1840000000       2
     1109  1138  1139  1140    1  180.0000000000    15.1670000000      2
     1109  1138  1139  1141    1  180.0000000000    15.1670000000      2
     1137  1138  1139  1140    1  180.0000000000    15.1670000000      2
     1137  1138  1139  1141    1  180.0000000000    15.1670000000      2
     1109  1114  1115  1116    1  180.0000000000    15.1670000000      2
     1109  1114  1115  1137    1  180.0000000000    15.1670000000      2
     1135  1114  1115  1116    1  180.0000000000    15.1670000000      2
     1135  1114  1115  1137    1  180.0000000000    15.1670000000      2
     1109  1114  1135  1134    1  180.0000000000    15.1670000000      2
     1109  1114  1135  1136    1  180.0000000000    15.1670000000      2
     1115  1114  1135  1134    1  180.0000000000    15.1670000000      2
     1115  1114  1135  1136    1  180.0000000000    15.1670000000      2
     4577  4579  4569  4568    1  0.0000000000      0.6508444444       3
     4577  4579  4569  4570    1  0.0000000000      0.5439200000       3
     4577  4579  4569  4571    1  0.0000000000      2.1756800000       3
     4569  4579  4577  4575    1  0.0000000000      2.1756800000       3
     4580  4579  4577  4575    1  0.0000000000      0.5439200000       3
     4581  4579  4577  4575    1  0.0000000000      2.1756800000       3
     4569  4579  4577  4578    1  0.0000000000      0.5439200000       3
     4580  4579  4577  4578    1  0.0000000000      0.5020800000       3
     4581  4579  4577  4578    1  0.0000000000      0.5439200000       3
     4569  4579  4581  4573    1  0.0000000000      0.6508444444       3
     4569  4579  4581  4582    1  0.0000000000      0.6508444444       3
     4569  4579  4581  4583    1  0.0000000000      0.6508444444       3
     4577  4579  4581  4582    1  0.0000000000      0.6508444444       3
     4577  4579  4581  4583    1  0.0000000000      0.6508444444       3
     4580  4579  4581  4573    1  0.0000000000      0.5439200000       3
     4580  4579  4581  4582    1  0.0000000000      0.5020800000       3
     4580  4579  4581  4583    1  0.0000000000      0.5020800000       3
     4569  4579  4577  4952    1  0.0000000000      0.6508444444       3
     4580  4579  4577  4952    1  0.0000000000      0.6508444444       3
     4581  4579  4577  4952    1  0.0000000000      0.6508444444       3
     3902  3926  3928  3906    1  0.0000000000      0.6508444444       3
     3902  3926  3928  3929    1  0.0000000000      0.6508444444       3
     3902  3926  3928  3930    1  0.0000000000      0.6508444444       3
     3924  3926  3928  3906    1  0.0000000000      0.6508444444       3
     3924  3926  3928  3929    1  0.0000000000      0.6508444444       3
     3924  3926  3928  3930    1  0.0000000000      0.6508444444       3
     3927  3926  3928  3906    1  0.0000000000      0.5439200000       3
     3927  3926  3928  3929    1  0.0000000000      0.5020800000       3
     3927  3926  3928  3930    1  0.0000000000      0.5020800000       3
     1106  1105  1109  1110    1  0.0000000000      0.5439200000       3
     1106  1105  1109  1114    1  0.0000000000      0.6508444444       3
     1106  1105  1109  1138    1  0.0000000000      0.6508444444       3
     1107  1105  1109  1110    1  0.0000000000      0.5439200000       3
     1107  1105  1109  1114    1  0.0000000000      0.6508444444       3
     1107  1105  1109  1138    1  0.0000000000      0.6508444444       3
     1108  1105  1109  1110    1  0.0000000000      0.5439200000       3
     1108  1105  1109  1114    1  0.0000000000      0.6508444444       3
     1108  1105  1109  1138    1  0.0000000000      0.6508444444       3
     4568  4569  4571  4572    1  0.0000000000      0.6508444444       3
     4568  4569  4571  4573    1  0.0000000000      0.6508444444       3
     4568  4569  4571  4584    1  0.0000000000      0.6508444444       3
     4570  4569  4571  4572    1  0.0000000000      0.6508444444       3
     4570  4569  4571  4573    1  0.0000000000      0.6508444444       3
     4570  4569  4571  4584    1  0.0000000000      0.6508444444       3
     4579  4569  4571  4572    1  0.0000000000      0.6508444444       3
     4579  4569  4571  4573    1  0.0000000000      0.6508444444       3
     4579  4569  4571  4584    1  0.0000000000      0.6508444444       3
     4568  4569  4579  4580    1  0.0000000000      0.6508444444       3
     4568  4569  4579  4581    1  0.0000000000      0.6508444444       3
     4570  4569  4579  4580    1  0.0000000000      0.5020800000       3
     4570  4569  4579  4581    1  0.0000000000      0.5439200000       3
     4571  4569  4579  4580    1  0.0000000000      0.5439200000       3
     4571  4569  4579  4581    1  0.0000000000      2.1756800000       3
     3852  3851  3850  3849    1  0.0000000000      0.0000000000       2
     3853  3851  3850  3849    1  0.0000000000      0.0000000000       2
     3854  3851  3850  3849    1  0.0000000000      0.0000000000       2
     1115  1116  1118  1119    1  180.0000000000    15.1670000000      2
     1115  1116  1118  1134    1  180.0000000000    15.1670000000      2
     1117  1116  1118  1119    1  180.0000000000    15.1670000000      2
     1117  1116  1118  1134    1  180.0000000000    15.1670000000      2
     4568  4584  4585  4564    1  180.0000000000    15.1670000000      2
     4568  4584  4585  4586    1  180.0000000000    15.1670000000      2
     4571  4584  4585  4564    1  180.0000000000    15.1670000000      2
     4571  4584  4585  4586    1  180.0000000000    15.1670000000      2
     3908  3924  3926  3902    1  0.0000000000      2.1756800000       3
     3908  3924  3926  3927    1  0.0000000000      0.5439200000       3
     3908  3924  3926  3928    1  0.0000000000      2.1756800000       3
     3911  3924  3926  3902    1  0.0000000000      0.6508444444       3
     3911  3924  3926  3927    1  0.0000000000      0.6508444444       3
     3911  3924  3926  3928    1  0.0000000000      0.6508444444       3
     3925  3924  3926  3902    1  0.0000000000      0.5439200000       3
     3925  3924  3926  3927    1  0.0000000000      0.5020800000       3
     3925  3924  3926  3928    1  0.0000000000      0.5439200000       3
     4559  4588  4589  4590    1  180.0000000000    15.1670000000      2
     4559  4588  4589  4591    1  180.0000000000    15.1670000000      2
     4587  4588  4589  4590    1  180.0000000000    15.1670000000      2
     4587  4588  4589  4591    1  180.0000000000    15.1670000000      2
     4589  4591  4592  4593    1  0.0000000000      0.0000000000       1
     4589  4591  4592  4594    1  180.0000000000    1.0041600000       2
     4589  4591  4592  4616    1  180.0000000000    1.0041600000       2
     4621  4591  4592  4593    1  0.0000000000      0.0000000000       1
     4621  4591  4592  4594    1  180.0000000000    1.0041600000       2
     4621  4591  4592  4616    1  180.0000000000    1.0041600000       2
     4589  4591  4621  4594    1  180.0000000000    15.1670000000      2
     4589  4591  4621  4622    1  180.0000000000    15.1670000000      2
     4592  4591  4621  4594    1  180.0000000000    15.1670000000      2
     4592  4591  4621  4622    1  180.0000000000    15.1670000000      2
     4594  4596  4598  4599    1  0.0000000000      0.5439200000       3
     4594  4596  4598  4600    1  0.0000000000      0.6508444444       3
     4594  4596  4598  4614    1  0.0000000000      2.1756800000       3
     4597  4596  4598  4599    1  0.0000000000      0.5020800000       3
     4597  4596  4598  4600    1  0.0000000000      0.6508444444       3
     4597  4596  4598  4614    1  0.0000000000      0.5439200000       3
     4618  4596  4598  4599    1  0.0000000000      0.5439200000       3
     4618  4596  4598  4600    1  0.0000000000      0.6508444444       3
     4618  4596  4598  4614    1  0.0000000000      2.1756800000       3
     4594  4596  4618  4616    1  0.0000000000      0.6508444444       3
     4594  4596  4618  4619    1  0.0000000000      0.6508444444       3
     4594  4596  4618  4620    1  0.0000000000      0.6508444444       3
     4597  4596  4618  4616    1  0.0000000000      0.5439200000       3
     4597  4596  4618  4619    1  0.0000000000      0.5020800000       3
     4597  4596  4618  4620    1  0.0000000000      0.5020800000       3
     4598  4596  4618  4616    1  0.0000000000      0.6508444444       3
     4598  4596  4618  4619    1  0.0000000000      0.6508444444       3
     4598  4596  4618  4620    1  0.0000000000      0.6508444444       3
     4555  4559  4560  4561    1  0.0000000000      0.5439200000       3
     4555  4559  4560  4562    1  0.0000000000      0.5439200000       3
     4555  4559  4560  4563    1  0.0000000000      0.5439200000       3
     4564  4559  4560  4561    1  0.0000000000      0.6508444444       3
     4564  4559  4560  4562    1  0.0000000000      0.6508444444       3
     4564  4559  4560  4563    1  0.0000000000      0.6508444444       3
     4588  4559  4560  4561    1  0.0000000000      0.6508444444       3
     4588  4559  4560  4562    1  0.0000000000      0.6508444444       3
     4588  4559  4560  4563    1  0.0000000000      0.6508444444       3
     4555  4559  4564  4565    1  0.0000000000      0.0000000000       2
     4555  4559  4564  4585    1  180.0000000000    1.0041600000       2
     4560  4559  4564  4565    1  0.0000000000      0.0000000000       2
     4560  4559  4564  4585    1  180.0000000000    1.0041600000       2
     4588  4559  4564  4565    1  0.0000000000      0.0000000000       2
     4588  4559  4564  4585    1  180.0000000000    0.0000000000       2
     4555  4559  4588  4587    1  0.0000000000      0.0000000000       2
     4555  4559  4588  4589    1  180.0000000000    1.0041600000       2
     4560  4559  4588  4587    1  0.0000000000      0.0000000000       2
     4560  4559  4588  4589    1  180.0000000000    1.0041600000       2
     4564  4559  4588  4587    1  0.0000000000      0.0000000000       2
     4564  4559  4588  4589    1  180.0000000000    0.0000000000       2
     1118  1134  1135  1114    1  180.0000000000    15.1670000000      2
     1118  1134  1135  1136    1  180.0000000000    15.1670000000      2
     1121  1134  1135  1114    1  180.0000000000    15.1670000000      2
     1121  1134  1135  1136    1  180.0000000000    15.1670000000      2
     4579  4581  4573  4575    1  0.0000000000      0.6508444444       3
     4573  4581  4579  4577    1  0.0000000000      0.6508444444       3
     4591  4592  4594  4595    1  0.0000000000      0.6508444444       3
     4591  4592  4594  4596    1  0.0000000000      0.6508444444       3
     4591  4592  4594  4621    1  0.0000000000      0.6508444444       3
     4593  4592  4594  4595    1  0.0000000000      0.6508444444       3
     4593  4592  4594  4596    1  0.0000000000      0.6508444444       3
     4593  4592  4594  4621    1  0.0000000000      0.6508444444       3
     4616  4592  4594  4595    1  0.0000000000      0.6508444444       3
     4616  4592  4594  4596    1  0.0000000000      0.6508444444       3
     4616  4592  4594  4621    1  0.0000000000      0.6508444444       3
     4591  4592  4616  4614    1  0.0000000000      0.6508444444       3
     4591  4592  4616  4617    1  0.0000000000      0.6508444444       3
     4591  4592  4616  4618    1  0.0000000000      0.6508444444       3
     4593  4592  4616  4614    1  0.0000000000      0.5439200000       3
     4593  4592  4616  4617    1  0.0000000000      0.5020800000       3
     4593  4592  4616  4618    1  0.0000000000      0.5439200000       3
     4594  4592  4616  4614    1  0.0000000000      2.1756800000       3
     4594  4592  4616  4617    1  0.0000000000      0.5439200000       3
     4594  4592  4616  4618    1  0.0000000000      2.1756800000       3
     4579  4577  4575  4576    1  0.0000000000      0.6508444444       3
     4579  4577  4575  4953    1  0.0000000000      0.6508444444       3
     4952  4577  4575  4576    1  0.0000000000      0.6508444444       3
     3906  3908  3910  3911    1  180.0000000000    1.0041600000       2
     3906  3908  3910  3919    1  180.0000000000    1.0041600000       2
     3909  3908  3910  3911    1  0.0000000000      0.0000000000       1
     3909  3908  3910  3919    1  0.0000000000      0.0000000000       1
     3924  3908  3910  3911    1  180.0000000000    1.0041600000       2
     3924  3908  3910  3919    1  180.0000000000    1.0041600000       2
     3906  3908  3924  3911    1  0.0000000000      0.6508444444       3
     3906  3908  3924  3925    1  0.0000000000      0.6508444444       3
     3906  3908  3924  3926    1  0.0000000000      0.6508444444       3
     3909  3908  3924  3911    1  0.0000000000      0.6508444444       3
     3909  3908  3924  3925    1  0.0000000000      0.6508444444       3
     3909  3908  3924  3926    1  0.0000000000      0.6508444444       3
     3910  3908  3924  3911    1  0.0000000000      0.6508444444       3
     3910  3908  3924  3925    1  0.0000000000      0.6508444444       3
     3910  3908  3924  3926    1  0.0000000000      0.6508444444       3
     4588  4589  4591  4592    1  180.0000000000    15.1670000000      2
     4588  4589  4591  4621    1  180.0000000000    15.1670000000      2
     4590  4589  4591  4592    1  180.0000000000    15.1670000000      2
     4590  4589  4591  4621    1  180.0000000000    15.1670000000      2
     1138  1139  1141  1142    1  180.0000000000    15.1670000000      2
     1138  1139  1141  1171    1  180.0000000000    15.1670000000      2
     1140  1139  1141  1142    1  180.0000000000    15.1670000000      2
     1140  1139  1141  1171    1  180.0000000000    15.1670000000      2
     4569  4571  4573  4574    1  0.0000000000      0.5439200000       3
     4569  4571  4573  4581    1  0.0000000000      2.1756800000       3
     4572  4571  4573  4574    1  0.0000000000      0.5020800000       3
     4572  4571  4573  4581    1  0.0000000000      0.5439200000       3
     4584  4571  4573  4574    1  0.0000000000      0.6508444444       3
     4584  4571  4573  4581    1  0.0000000000      0.6508444444       3
     4569  4571  4584  4568    1  180.0000000000    1.0041600000       2
     4569  4571  4584  4585    1  180.0000000000    1.0041600000       2
     4572  4571  4584  4568    1  0.0000000000      0.0000000000       1
     4572  4571  4584  4585    1  0.0000000000      0.0000000000       1
     4573  4571  4584  4568    1  180.0000000000    1.0041600000       2
     4573  4571  4584  4585    1  180.0000000000    1.0041600000       2
     1116  1118  1119  1120    1  0.0000000000      0.0000000000       1
     1116  1118  1119  1121    1  180.0000000000    1.0041600000       2
     1116  1118  1119  1129    1  180.0000000000    1.0041600000       2
     1134  1118  1119  1120    1  0.0000000000      0.0000000000       1
     1134  1118  1119  1121    1  180.0000000000    1.0041600000       2
     1134  1118  1119  1129    1  180.0000000000    1.0041600000       2
     1116  1118  1134  1121    1  180.0000000000    15.1670000000      2
     1116  1118  1134  1135    1  180.0000000000    15.1670000000      2
     1119  1118  1134  1121    1  180.0000000000    15.1670000000      2
     1119  1118  1134  1135    1  180.0000000000    15.1670000000      2
     1148  1164  1166  1142    1  0.0000000000      2.1756800000       3
     1148  1164  1166  1167    1  0.0000000000      0.5439200000       3
     1148  1164  1166  1168    1  0.0000000000      2.1756800000       3
     1151  1164  1166  1142    1  0.0000000000      0.6508444444       3
     1151  1164  1166  1167    1  0.0000000000      0.6508444444       3
     1151  1164  1166  1168    1  0.0000000000      0.6508444444       3
     1165  1164  1166  1142    1  0.0000000000      0.5439200000       3
     1165  1164  1166  1167    1  0.0000000000      0.5020800000       3
     1165  1164  1166  1168    1  0.0000000000      0.5439200000       3
     3908  3910  3911  3912    1  180.0000000000    15.1670000000      2
     3908  3910  3911  3924    1  180.0000000000    15.1670000000      2
     3919  3910  3911  3912    1  180.0000000000    15.1670000000      2
     3919  3910  3911  3924    1  180.0000000000    15.1670000000      2
     3908  3910  3919  3920    1  180.0000000000    15.1670000000      2
     3911  3910  3919  3918    1  180.0000000000    15.1670000000      2
     3911  3910  3919  3920    1  180.0000000000    15.1670000000      2
     5604  5606  5608  5609    1  0.0000000000      0.5439200000       3
     5604  5606  5608  5616    1  0.0000000000      2.1756800000       3
     5607  5606  5608  5609    1  0.0000000000      0.5020800000       3
     5607  5606  5608  5616    1  0.0000000000      0.5439200000       3
     5619  5606  5608  5609    1  0.0000000000      0.6508444444       3
     5619  5606  5608  5616    1  0.0000000000      0.6508444444       3
     5604  5606  5619  5603    1  180.0000000000    1.0041600000       2
     5604  5606  5619  5620    1  180.0000000000    1.0041600000       2
     5607  5606  5619  5603    1  0.0000000000      0.0000000000       1
     5607  5606  5619  5620    1  0.0000000000      0.0000000000       1
     5608  5606  5619  5603    1  180.0000000000    1.0041600000       2
     5608  5606  5619  5620    1  180.0000000000    1.0041600000       2
     5614  5616  5608  5610    1  0.0000000000      0.6508444444       3
     5608  5616  5614  5612    1  0.0000000000      0.6508444444       3
     3912  3917  3918  3919    1  180.0000000000    15.1670000000      2
     3912  3917  3918  5612    1  180.0000000000    15.1670000000      2
     3912  3917  5610  5608    1  180.0000000000    1.0041600000       2
     3918  3917  5610  5608    1  180.0000000000    1.0041600000       2
     3912  3917  5610  5611    1  0.0000000000      0.0000000000       1
     3918  3917  5610  5611    1  0.0000000000      0.0000000000       1
     3912  3917  5610  5612    1  180.0000000000    1.0041600000       2
     3918  3917  5610  5612    1  180.0000000000    1.0041600000       2
     3921  3920  3919  3918    1  0.0000000000      0.0000000000       2
     3922  3920  3919  3918    1  0.0000000000      0.0000000000       2
     3923  3920  3919  3918    1  0.0000000000      0.0000000000       2
     3914  3913  3912  3917    1  0.0000000000      0.0000000000       2
     3915  3913  3912  3917    1  0.0000000000      0.0000000000       2
     3916  3913  3912  3917    1  0.0000000000      0.0000000000       2
     5612  5614  5604  5603    1  0.0000000000      0.6508444444       3
     5612  5614  5604  5605    1  0.0000000000      0.5439200000       3
     5612  5614  5604  5606    1  0.0000000000      2.1756800000       3
     5604  5614  5612  5610    1  0.0000000000      2.1756800000       3
     5615  5614  5612  5610    1  0.0000000000      0.5439200000       3
     5616  5614  5612  5610    1  0.0000000000      2.1756800000       3
     5604  5614  5612  5613    1  0.0000000000      0.5439200000       3
     5615  5614  5612  5613    1  0.0000000000      0.5020800000       3
     5616  5614  5612  5613    1  0.0000000000      0.5439200000       3
     5604  5614  5616  5608    1  0.0000000000      0.6508444444       3
     5604  5614  5616  5617    1  0.0000000000      0.6508444444       3
     5604  5614  5616  5618    1  0.0000000000      0.6508444444       3
     5612  5614  5616  5617    1  0.0000000000      0.6508444444       3
     5612  5614  5616  5618    1  0.0000000000      0.6508444444       3
     5615  5614  5616  5608    1  0.0000000000      0.5439200000       3
     5615  5614  5616  5617    1  0.0000000000      0.5020800000       3
     5615  5614  5616  5618    1  0.0000000000      0.5020800000       3
     5604  5614  5612  3918    1  0.0000000000      0.6508444444       3
     5615  5614  5612  3918    1  0.0000000000      0.6508444444       3
     5616  5614  5612  3918    1  0.0000000000      0.6508444444       3
     3898  3899  3901  3902    1  180.0000000000    15.1670000000      2
     3898  3899  3901  3931    1  180.0000000000    15.1670000000      2
     3900  3899  3901  3902    1  180.0000000000    15.1670000000      2
     3900  3899  3901  3931    1  180.0000000000    15.1670000000      2
     1141  1171  1172  1137    1  180.0000000000    15.1670000000      2
     1141  1171  1172  1173    1  180.0000000000    15.1670000000      2
     1144  1171  1172  1137    1  180.0000000000    15.1670000000      2
     1144  1171  1172  1173    1  180.0000000000    15.1670000000      2
     5601  5603  5604  5605    1  0.0000000000      0.0000000000       1
     5601  5603  5604  5606    1  180.0000000000    1.0041600000       2
     5601  5603  5604  5614    1  180.0000000000    1.0041600000       2
     5619  5603  5604  5605    1  0.0000000000      0.0000000000       1
     5619  5603  5604  5606    1  180.0000000000    1.0041600000       2
     5619  5603  5604  5614    1  180.0000000000    1.0041600000       2
     5601  5603  5619  5606    1  180.0000000000    15.1670000000      2
     5601  5603  5619  5620    1  180.0000000000    15.1670000000      2
     5604  5603  5619  5606    1  180.0000000000    15.1670000000      2
     5604  5603  5619  5620    1  180.0000000000    15.1670000000      2
     281   286   287   288     1  180.0000000000    15.1670000000      2
     281   286   287   309     1  180.0000000000    15.1670000000      2
     307   286   287   288     1  180.0000000000    15.1670000000      2
     307   286   287   309     1  180.0000000000    15.1670000000      2
     281   286   307   306     1  180.0000000000    15.1670000000      2
     281   286   307   308     1  180.0000000000    15.1670000000      2
     287   286   307   306     1  180.0000000000    15.1670000000      2
     287   286   307   308     1  180.0000000000    15.1670000000      2
     1144  1146  1148  1149    1  0.0000000000      0.5439200000       3
     1144  1146  1148  1150    1  0.0000000000      0.6508444444       3
     1144  1146  1148  1164    1  0.0000000000      2.1756800000       3
     1147  1146  1148  1149    1  0.0000000000      0.5020800000       3
     1147  1146  1148  1150    1  0.0000000000      0.6508444444       3
     1147  1146  1148  1164    1  0.0000000000      0.5439200000       3
     1168  1146  1148  1149    1  0.0000000000      0.5439200000       3
     1168  1146  1148  1150    1  0.0000000000      0.6508444444       3
     1168  1146  1148  1164    1  0.0000000000      2.1756800000       3
     1144  1146  1168  1166    1  0.0000000000      0.6508444444       3
     1144  1146  1168  1169    1  0.0000000000      0.6508444444       3
     1144  1146  1168  1170    1  0.0000000000      0.6508444444       3
     1147  1146  1168  1166    1  0.0000000000      0.5439200000       3
     1147  1146  1168  1169    1  0.0000000000      0.5020800000       3
     1147  1146  1168  1170    1  0.0000000000      0.5020800000       3
     1148  1146  1168  1166    1  0.0000000000      0.6508444444       3
     1148  1146  1168  1169    1  0.0000000000      0.6508444444       3
     1148  1146  1168  1170    1  0.0000000000      0.6508444444       3
     5608  5610  5612  5613    1  0.0000000000      0.6508444444       3
     5608  5610  5612  5614    1  0.0000000000      0.6508444444       3
     5611  5610  5612  5613    1  0.0000000000      0.6508444444       3
     5608  5610  5612  3918    1  0.0000000000      0.6508444444       3
     3917  5610  5612  5613    1  0.0000000000      0.6508444444       3
     3918  3919  3910  3908    1  180.0000000000    15.1670000000      2
     3910  3919  3920  3921    1  0.0000000000      0.0000000000       2
     3910  3919  3920  3922    1  0.0000000000      0.0000000000       2
     3910  3919  3920  3923    1  0.0000000000      0.0000000000       2
     3920  3919  3918  3917    1  180.0000000000    15.1670000000      2
     3910  3919  3918  5612    1  180.0000000000    15.1670000000      2
     3920  3919  3918  5612    1  180.0000000000    15.1670000000      2
     1142  1144  1146  1147    1  0.0000000000      0.5439200000       3
     1142  1144  1146  1148    1  0.0000000000      2.1756800000       3
     1142  1144  1146  1168    1  0.0000000000      2.1756800000       3
     1145  1144  1146  1147    1  0.0000000000      0.5020800000       3
     1145  1144  1146  1148    1  0.0000000000      0.5439200000       3
     1145  1144  1146  1168    1  0.0000000000      0.5439200000       3
     1171  1144  1146  1147    1  0.0000000000      0.6508444444       3
     1171  1144  1146  1148    1  0.0000000000      0.6508444444       3
     1171  1144  1146  1168    1  0.0000000000      0.6508444444       3
     1142  1144  1171  1141    1  180.0000000000    1.0041600000       2
     1142  1144  1171  1172    1  180.0000000000    1.0041600000       2
     1145  1144  1171  1141    1  0.0000000000      0.0000000000       1
     1145  1144  1171  1172    1  0.0000000000      0.0000000000       1
     1146  1144  1171  1141    1  180.0000000000    1.0041600000       2
     1146  1144  1171  1172    1  180.0000000000    1.0041600000       2
     4949  4948  4947  4952    1  0.0000000000      0.0000000000       2
     4950  4948  4947  4952    1  0.0000000000      0.0000000000       2
     4951  4948  4947  4952    1  0.0000000000      0.0000000000       2
     3917  3918  3919  3910    1  180.0000000000    15.1670000000      2
     5612  3918  3917  5610    1  180.0000000000    15.1670000000      2
     3917  3918  5612  5610    1  180.0000000000    1.0041600000       2
     3919  3918  5612  5610    1  180.0000000000    1.0041600000       2
     3917  3918  5612  5613    1  0.0000000000      0.0000000000       1
     3919  3918  5612  5613    1  0.0000000000      0.0000000000       1
     3917  3918  5612  5614    1  180.0000000000    1.0041600000       2
     3919  3918  5612  5614    1  180.0000000000    1.0041600000       2
     3919  3918  3917  5610    1  180.0000000000    15.1670000000      2
     1139  1141  1142  1143    1  0.0000000000      0.0000000000       1
     1139  1141  1142  1144    1  180.0000000000    1.0041600000       2
     1139  1141  1142  1166    1  180.0000000000    1.0041600000       2
     1171  1141  1142  1143    1  0.0000000000      0.0000000000       1
     1171  1141  1142  1144    1  180.0000000000    1.0041600000       2
     1171  1141  1142  1166    1  180.0000000000    1.0041600000       2
     1139  1141  1171  1144    1  180.0000000000    15.1670000000      2
     1139  1141  1171  1172    1  180.0000000000    15.1670000000      2
     1142  1141  1171  1144    1  180.0000000000    15.1670000000      2
     1142  1141  1171  1172    1  180.0000000000    15.1670000000      2
     277   281   282   283     1  0.0000000000      0.5439200000       3
     277   281   282   284     1  0.0000000000      0.5439200000       3
     277   281   282   285     1  0.0000000000      0.5439200000       3
     286   281   282   283     1  0.0000000000      0.6508444444       3
     286   281   282   284     1  0.0000000000      0.6508444444       3
     286   281   282   285     1  0.0000000000      0.6508444444       3
     310   281   282   283     1  0.0000000000      0.6508444444       3
     310   281   282   284     1  0.0000000000      0.6508444444       3
     310   281   282   285     1  0.0000000000      0.6508444444       3
     277   281   286   287     1  0.0000000000      0.0000000000       2
     277   281   286   307     1  180.0000000000    1.0041600000       2
     282   281   286   287     1  0.0000000000      0.0000000000       2
     282   281   286   307     1  180.0000000000    1.0041600000       2
     310   281   286   287     1  0.0000000000      0.0000000000       2
     310   281   286   307     1  180.0000000000    0.0000000000       2
     277   281   310   309     1  0.0000000000      0.0000000000       2
     277   281   310   311     1  180.0000000000    1.0041600000       2
     282   281   310   309     1  0.0000000000      0.0000000000       2
     282   281   310   311     1  180.0000000000    1.0041600000       2
     286   281   310   309     1  0.0000000000      0.0000000000       2
     286   281   310   311     1  180.0000000000    0.0000000000       2
     3917  3912  3911  3924    1  180.0000000000    15.1670000000      2
     3911  3912  3913  3914    1  0.0000000000      0.0000000000       2
     3911  3912  3913  3915    1  0.0000000000      0.0000000000       2
     3911  3912  3913  3916    1  0.0000000000      0.0000000000       2
     3911  3912  3917  3918    1  180.0000000000    15.1670000000      2
     3913  3912  3917  3918    1  180.0000000000    15.1670000000      2
     3911  3912  3917  5610    1  180.0000000000    15.1670000000      2
     3913  3912  3917  5610    1  180.0000000000    15.1670000000      2
     5603  5604  5606  5607    1  0.0000000000      0.6508444444       3
     5603  5604  5606  5608    1  0.0000000000      0.6508444444       3
     5603  5604  5606  5619    1  0.0000000000      0.6508444444       3
     5605  5604  5606  5607    1  0.0000000000      0.6508444444       3
     5605  5604  5606  5608    1  0.0000000000      0.6508444444       3
     5605  5604  5606  5619    1  0.0000000000      0.6508444444       3
     5614  5604  5606  5607    1  0.0000000000      0.6508444444       3
     5614  5604  5606  5608    1  0.0000000000      0.6508444444       3
     5614  5604  5606  5619    1  0.0000000000      0.6508444444       3
     5603  5604  5614  5615    1  0.0000000000      0.6508444444       3
     5603  5604  5614  5616    1  0.0000000000      0.6508444444       3
     5605  5604  5614  5615    1  0.0000000000      0.5020800000       3
     5605  5604  5614  5616    1  0.0000000000      0.5439200000       3
     5606  5604  5614  5615    1  0.0000000000      0.5439200000       3
     5606  5604  5614  5616    1  0.0000000000      2.1756800000       3
     1142  1166  1168  1146    1  0.0000000000      0.6508444444       3
     1142  1166  1168  1169    1  0.0000000000      0.6508444444       3
     1142  1166  1168  1170    1  0.0000000000      0.6508444444       3
     1164  1166  1168  1146    1  0.0000000000      0.6508444444       3
     1164  1166  1168  1169    1  0.0000000000      0.6508444444       3
     1164  1166  1168  1170    1  0.0000000000      0.6508444444       3
     1167  1166  1168  1146    1  0.0000000000      0.5439200000       3
     1167  1166  1168  1169    1  0.0000000000      0.5020800000       3
     1167  1166  1168  1170    1  0.0000000000      0.5020800000       3
     3866  3865  3869  3870    1  0.0000000000      0.5439200000       3
     3866  3865  3869  3874    1  0.0000000000      0.6508444444       3
     3866  3865  3869  3898    1  0.0000000000      0.6508444444       3
     3867  3865  3869  3870    1  0.0000000000      0.5439200000       3
     3867  3865  3869  3874    1  0.0000000000      0.6508444444       3
     3867  3865  3869  3898    1  0.0000000000      0.6508444444       3
     3868  3865  3869  3870    1  0.0000000000      0.5439200000       3
     3868  3865  3869  3874    1  0.0000000000      0.6508444444       3
     3868  3865  3869  3898    1  0.0000000000      0.6508444444       3
     1141  1142  1144  1145    1  0.0000000000      0.6508444444       3
     1141  1142  1144  1146    1  0.0000000000      0.6508444444       3
     1141  1142  1144  1171    1  0.0000000000      0.6508444444       3
     1143  1142  1144  1145    1  0.0000000000      0.6508444444       3
     1143  1142  1144  1146    1  0.0000000000      0.6508444444       3
     1143  1142  1144  1171    1  0.0000000000      0.6508444444       3
     1166  1142  1144  1145    1  0.0000000000      0.6508444444       3
     1166  1142  1144  1146    1  0.0000000000      0.6508444444       3
     1166  1142  1144  1171    1  0.0000000000      0.6508444444       3
     1141  1142  1166  1164    1  0.0000000000      0.6508444444       3
     1141  1142  1166  1167    1  0.0000000000      0.6508444444       3
     1141  1142  1166  1168    1  0.0000000000      0.6508444444       3
     1143  1142  1166  1164    1  0.0000000000      0.5439200000       3
     1143  1142  1166  1167    1  0.0000000000      0.5020800000       3
     1143  1142  1166  1168    1  0.0000000000      0.5439200000       3
     1144  1142  1166  1164    1  0.0000000000      2.1756800000       3
     1144  1142  1166  1167    1  0.0000000000      0.5439200000       3
     1144  1142  1166  1168    1  0.0000000000      2.1756800000       3
     5603  5619  5620  5599    1  180.0000000000    15.1670000000      2
     5603  5619  5620  5621    1  180.0000000000    15.1670000000      2
     5606  5619  5620  5599    1  180.0000000000    15.1670000000      2
     5606  5619  5620  5621    1  180.0000000000    15.1670000000      2
     5614  5612  5610  5611    1  0.0000000000      0.6508444444       3
     3918  5612  5610  5611    1  0.0000000000      0.6508444444       3
     3918  5612  5610  3917    1  0.0000000000      0.6508444444       3
     5614  5612  5610  3917    1  0.0000000000      0.6508444444       3
     3865  3869  3870  3871    1  0.0000000000      0.5439200000       3
     3865  3869  3870  3872    1  0.0000000000      0.5439200000       3
     3865  3869  3870  3873    1  0.0000000000      0.5439200000       3
     3874  3869  3870  3871    1  0.0000000000      0.6508444444       3
     3874  3869  3870  3872    1  0.0000000000      0.6508444444       3
     3874  3869  3870  3873    1  0.0000000000      0.6508444444       3
     3898  3869  3870  3871    1  0.0000000000      0.6508444444       3
     3898  3869  3870  3872    1  0.0000000000      0.6508444444       3
     3898  3869  3870  3873    1  0.0000000000      0.6508444444       3
     3865  3869  3874  3875    1  0.0000000000      0.0000000000       2
     3865  3869  3874  3895    1  180.0000000000    1.0041600000       2
     3870  3869  3874  3875    1  0.0000000000      0.0000000000       2
     3870  3869  3874  3895    1  180.0000000000    1.0041600000       2
     3898  3869  3874  3875    1  0.0000000000      0.0000000000       2
     3898  3869  3874  3895    1  180.0000000000    0.0000000000       2
     3865  3869  3898  3897    1  0.0000000000      0.0000000000       2
     3865  3869  3898  3899    1  180.0000000000    1.0041600000       2
     3870  3869  3898  3897    1  0.0000000000      0.0000000000       2
     3870  3869  3898  3899    1  180.0000000000    1.0041600000       2
     3874  3869  3898  3897    1  0.0000000000      0.0000000000       2
     3874  3869  3898  3899    1  180.0000000000    0.0000000000       2
     286   287   288   289     1  180.0000000000    15.1670000000      2
     286   287   288   290     1  180.0000000000    15.1670000000      2
     309   287   288   289     1  180.0000000000    15.1670000000      2
     309   287   288   290     1  180.0000000000    15.1670000000      2
     286   287   309   310     1  180.0000000000    4.1840000000       2
     286   287   309   344     1  180.0000000000    4.1840000000       2
     288   287   309   310     1  180.0000000000    4.1840000000       2
     288   287   309   344     1  180.0000000000    4.1840000000       2
     5610  5608  5606  5604    1  0.0000000000      2.1756800000       3
     5610  5608  5606  5607    1  0.0000000000      0.5439200000       3
     5610  5608  5606  5619    1  0.0000000000      0.6508444444       3
     5606  5608  5610  5611    1  0.0000000000      0.5439200000       3
     5606  5608  5610  5612    1  0.0000000000      2.1756800000       3
     5609  5608  5610  5611    1  0.0000000000      0.5020800000       3
     5609  5608  5610  5612    1  0.0000000000      0.5439200000       3
     5616  5608  5610  5611    1  0.0000000000      0.5439200000       3
     5616  5608  5610  5612    1  0.0000000000      2.1756800000       3
     5606  5608  5616  5614    1  0.0000000000      0.6508444444       3
     5606  5608  5616  5617    1  0.0000000000      0.6508444444       3
     5606  5608  5616  5618    1  0.0000000000      0.6508444444       3
     5609  5608  5616  5614    1  0.0000000000      0.5439200000       3
     5609  5608  5616  5617    1  0.0000000000      0.5020800000       3
     5609  5608  5616  5618    1  0.0000000000      0.5020800000       3
     5610  5608  5616  5617    1  0.0000000000      0.6508444444       3
     5610  5608  5616  5618    1  0.0000000000      0.6508444444       3
     5606  5608  5610  3917    1  0.0000000000      0.6508444444       3
     5609  5608  5610  3917    1  0.0000000000      0.6508444444       3
     5616  5608  5610  3917    1  0.0000000000      0.6508444444       3
     3910  3911  3912  3913    1  180.0000000000    15.1670000000      2
     3910  3911  3912  3917    1  180.0000000000    15.1670000000      2
     3924  3911  3912  3913    1  180.0000000000    15.1670000000      2
     3910  3911  3924  3908    1  180.0000000000    1.0041600000       2
     3910  3911  3924  3925    1  0.0000000000      0.0000000000       1
     3910  3911  3924  3926    1  180.0000000000    1.0041600000       2
     3912  3911  3924  3908    1  180.0000000000    1.0041600000       2
     3912  3911  3924  3925    1  0.0000000000      0.0000000000       1
     3912  3911  3924  3926    1  180.0000000000    1.0041600000       2
     3899  3901  3902  3903    1  0.0000000000      0.0000000000       1
     3899  3901  3902  3904    1  180.0000000000    1.0041600000       2
     3899  3901  3902  3926    1  180.0000000000    1.0041600000       2
     3931  3901  3902  3903    1  0.0000000000      0.0000000000       1
     3931  3901  3902  3904    1  180.0000000000    1.0041600000       2
     3931  3901  3902  3926    1  180.0000000000    1.0041600000       2
     3899  3901  3931  3904    1  180.0000000000    15.1670000000      2
     3899  3901  3931  3932    1  180.0000000000    15.1670000000      2
     3902  3901  3931  3904    1  180.0000000000    15.1670000000      2
     3902  3901  3931  3932    1  180.0000000000    15.1670000000      2
     3869  3898  3899  3900    1  180.0000000000    15.1670000000      2
     3869  3898  3899  3901    1  180.0000000000    15.1670000000      2
     3897  3898  3899  3900    1  180.0000000000    15.1670000000      2
     3897  3898  3899  3901    1  180.0000000000    15.1670000000      2
     3419  3421  3423  3424    1  0.0000000000      0.5439200000       3
     3419  3421  3423  3425    1  0.0000000000      2.1756800000       3
     3419  3421  3423  3445    1  0.0000000000      2.1756800000       3
     3422  3421  3423  3424    1  0.0000000000      0.5020800000       3
     3422  3421  3423  3425    1  0.0000000000      0.5439200000       3
     3422  3421  3423  3445    1  0.0000000000      0.5439200000       3
     3448  3421  3423  3424    1  0.0000000000      0.6508444444       3
     3448  3421  3423  3425    1  0.0000000000      0.6508444444       3
     3448  3421  3423  3445    1  0.0000000000      0.6508444444       3
     3419  3421  3448  3418    1  180.0000000000    1.0041600000       2
     3419  3421  3448  3449    1  180.0000000000    1.0041600000       2
     3422  3421  3448  3418    1  0.0000000000      0.0000000000       1
     3422  3421  3448  3449    1  0.0000000000      0.0000000000       1
     3423  3421  3448  3418    1  180.0000000000    1.0041600000       2
     3423  3421  3448  3449    1  180.0000000000    1.0041600000       2
     3421  3423  3425  3426    1  0.0000000000      0.5439200000       3
     3421  3423  3425  3427    1  0.0000000000      0.6508444444       3
     3421  3423  3425  3441    1  0.0000000000      2.1756800000       3
     3424  3423  3425  3426    1  0.0000000000      0.5020800000       3
     3424  3423  3425  3427    1  0.0000000000      0.6508444444       3
     3424  3423  3425  3441    1  0.0000000000      0.5439200000       3
     3445  3423  3425  3426    1  0.0000000000      0.5439200000       3
     3445  3423  3425  3427    1  0.0000000000      0.6508444444       3
     3445  3423  3425  3441    1  0.0000000000      2.1756800000       3
     3421  3423  3445  3443    1  0.0000000000      0.6508444444       3
     3421  3423  3445  3446    1  0.0000000000      0.6508444444       3
     3421  3423  3445  3447    1  0.0000000000      0.6508444444       3
     3424  3423  3445  3443    1  0.0000000000      0.5439200000       3
     3424  3423  3445  3446    1  0.0000000000      0.5020800000       3
     3424  3423  3445  3447    1  0.0000000000      0.5020800000       3
     3425  3423  3445  3443    1  0.0000000000      0.6508444444       3
     3425  3423  3445  3446    1  0.0000000000      0.6508444444       3
     3425  3423  3445  3447    1  0.0000000000      0.6508444444       3
     3423  3425  3427  3428    1  180.0000000000    1.0041600000       2
     3423  3425  3427  3436    1  180.0000000000    1.0041600000       2
     3426  3425  3427  3428    1  0.0000000000      0.0000000000       1
     3426  3425  3427  3436    1  0.0000000000      0.0000000000       1
     3441  3425  3427  3428    1  180.0000000000    1.0041600000       2
     3441  3425  3427  3436    1  180.0000000000    1.0041600000       2
     3423  3425  3441  3428    1  0.0000000000      0.6508444444       3
     3423  3425  3441  3442    1  0.0000000000      0.6508444444       3
     3423  3425  3441  3443    1  0.0000000000      0.6508444444       3
     3426  3425  3441  3428    1  0.0000000000      0.6508444444       3
     3426  3425  3441  3442    1  0.0000000000      0.6508444444       3
     3426  3425  3441  3443    1  0.0000000000      0.6508444444       3
     3427  3425  3441  3428    1  0.0000000000      0.6508444444       3
     3427  3425  3441  3442    1  0.0000000000      0.6508444444       3
     3427  3425  3441  3443    1  0.0000000000      0.6508444444       3
     3425  3427  3428  3429    1  180.0000000000    15.1670000000      2
     3425  3427  3428  3441    1  180.0000000000    15.1670000000      2
     3436  3427  3428  3429    1  180.0000000000    15.1670000000      2
     3436  3427  3428  3441    1  180.0000000000    15.1670000000      2
     3425  3427  3436  3437    1  180.0000000000    15.1670000000      2
     3428  3427  3436  3435    1  180.0000000000    15.1670000000      2
     3428  3427  3436  3437    1  180.0000000000    15.1670000000      2
     3438  3437  3436  3435    1  0.0000000000      0.0000000000       2
     3439  3437  3436  3435    1  0.0000000000      0.0000000000       2
     3440  3437  3436  3435    1  0.0000000000      0.0000000000       2
     3437  3436  3435  3434    1  180.0000000000    15.1670000000      2
     3427  3436  3437  3438    1  0.0000000000      0.0000000000       2
     3427  3436  3437  3439    1  0.0000000000      0.0000000000       2
     3427  3436  3437  3440    1  0.0000000000      0.0000000000       2
     3435  3436  3427  3425    1  180.0000000000    15.1670000000      2
     3437  3436  3435  3609    1  180.0000000000    15.1670000000      2
     3427  3436  3435  3609    1  180.0000000000    15.1670000000      2
     4786  4788  4780  4782    1  0.0000000000      0.6508444444       3
     4780  4788  4786  4784    1  0.0000000000      0.6508444444       3
     3416  3418  3419  3420    1  0.0000000000      0.0000000000       1
     3416  3418  3419  3421    1  180.0000000000    1.0041600000       2
     3416  3418  3419  3443    1  180.0000000000    1.0041600000       2
     3448  3418  3419  3420    1  0.0000000000      0.0000000000       1
     3448  3418  3419  3421    1  180.0000000000    1.0041600000       2
     3448  3418  3419  3443    1  180.0000000000    1.0041600000       2
     3416  3418  3448  3421    1  180.0000000000    15.1670000000      2
     3416  3418  3448  3449    1  180.0000000000    15.1670000000      2
     3419  3418  3448  3421    1  180.0000000000    15.1670000000      2
     3419  3418  3448  3449    1  180.0000000000    15.1670000000      2
     3418  3448  3449  3414    1  180.0000000000    15.1670000000      2
     3418  3448  3449  3450    1  180.0000000000    15.1670000000      2
     3421  3448  3449  3414    1  180.0000000000    15.1670000000      2
     3421  3448  3449  3450    1  180.0000000000    15.1670000000      2
     178   180   182   183     1  0.0000000000      0.5439200000       3
     178   180   182   184     1  0.0000000000      0.6508444444       3
     178   180   182   198     1  0.0000000000      2.1756800000       3
     181   180   182   183     1  0.0000000000      0.5020800000       3
     181   180   182   184     1  0.0000000000      0.6508444444       3
     181   180   182   198     1  0.0000000000      0.5439200000       3
     202   180   182   183     1  0.0000000000      0.5439200000       3
     202   180   182   184     1  0.0000000000      0.6508444444       3
     202   180   182   198     1  0.0000000000      2.1756800000       3
     178   180   202   200     1  0.0000000000      0.6508444444       3
     178   180   202   203     1  0.0000000000      0.6508444444       3
     178   180   202   204     1  0.0000000000      0.6508444444       3
     181   180   202   200     1  0.0000000000      0.5439200000       3
     181   180   202   203     1  0.0000000000      0.5020800000       3
     181   180   202   204     1  0.0000000000      0.5020800000       3
     182   180   202   200     1  0.0000000000      0.6508444444       3
     182   180   202   203     1  0.0000000000      0.6508444444       3
     182   180   202   204     1  0.0000000000      0.6508444444       3
     4784  4786  4776  4775    1  0.0000000000      0.6508444444       3
     4784  4786  4776  4777    1  0.0000000000      0.5439200000       3
     4784  4786  4776  4778    1  0.0000000000      2.1756800000       3
     4776  4786  4784  4782    1  0.0000000000      2.1756800000       3
     4787  4786  4784  4782    1  0.0000000000      0.5439200000       3
     4788  4786  4784  4782    1  0.0000000000      2.1756800000       3
     4776  4786  4784  4785    1  0.0000000000      0.5439200000       3
     4787  4786  4784  4785    1  0.0000000000      0.5020800000       3
     4788  4786  4784  4785    1  0.0000000000      0.5439200000       3
     4776  4786  4788  4780    1  0.0000000000      0.6508444444       3
     4776  4786  4788  4789    1  0.0000000000      0.6508444444       3
     4776  4786  4788  4790    1  0.0000000000      0.6508444444       3
     4784  4786  4788  4789    1  0.0000000000      0.6508444444       3
     4784  4786  4788  4790    1  0.0000000000      0.6508444444       3
     4787  4786  4788  4780    1  0.0000000000      0.5439200000       3
     4787  4786  4788  4789    1  0.0000000000      0.5020800000       3
     4787  4786  4788  4790    1  0.0000000000      0.5020800000       3
     4776  4786  4784  6884    1  0.0000000000      0.6508444444       3
     4787  4786  4784  6884    1  0.0000000000      0.6508444444       3
     4788  4786  4784  6884    1  0.0000000000      0.6508444444       3
     180   182   184   185     1  180.0000000000    1.0041600000       2
     180   182   184   193     1  180.0000000000    1.0041600000       2
     183   182   184   185     1  0.0000000000      0.0000000000       1
     183   182   184   193     1  0.0000000000      0.0000000000       1
     198   182   184   185     1  180.0000000000    1.0041600000       2
     198   182   184   193     1  180.0000000000    1.0041600000       2
     180   182   198   185     1  0.0000000000      0.6508444444       3
     180   182   198   199     1  0.0000000000      0.6508444444       3
     180   182   198   200     1  0.0000000000      0.6508444444       3
     183   182   198   185     1  0.0000000000      0.6508444444       3
     183   182   198   199     1  0.0000000000      0.6508444444       3
     183   182   198   200     1  0.0000000000      0.6508444444       3
     184   182   198   185     1  0.0000000000      0.6508444444       3
     184   182   198   199     1  0.0000000000      0.6508444444       3
     184   182   198   200     1  0.0000000000      0.6508444444       3
     1085  1084  1083  1088    1  0.0000000000      0.0000000000       2
     1086  1084  1083  1088    1  0.0000000000      0.0000000000       2
     1087  1084  1083  1088    1  0.0000000000      0.0000000000       2
     3427  3428  3429  3430    1  180.0000000000    15.1670000000      2
     3427  3428  3429  3434    1  180.0000000000    15.1670000000      2
     3441  3428  3429  3430    1  180.0000000000    15.1670000000      2
     3427  3428  3441  3425    1  180.0000000000    1.0041600000       2
     3427  3428  3441  3442    1  0.0000000000      0.0000000000       1
     3427  3428  3441  3443    1  180.0000000000    1.0041600000       2
     3429  3428  3441  3425    1  180.0000000000    1.0041600000       2
     3429  3428  3441  3442    1  0.0000000000      0.0000000000       1
     3429  3428  3441  3443    1  180.0000000000    1.0041600000       2
     1081  1082  1083  1084    1  180.0000000000    15.1670000000      2
     1081  1082  1083  1088    1  180.0000000000    15.1670000000      2
     1095  1082  1083  1084    1  180.0000000000    15.1670000000      2
     1081  1082  1095  1079    1  180.0000000000    1.0041600000       2
     1081  1082  1095  1096    1  0.0000000000      0.0000000000       1
     1081  1082  1095  1097    1  180.0000000000    1.0041600000       2
     1083  1082  1095  1079    1  180.0000000000    1.0041600000       2
     1083  1082  1095  1096    1  0.0000000000      0.0000000000       1
     1083  1082  1095  1097    1  180.0000000000    1.0041600000       2
     1070  1072  1073  1074    1  0.0000000000      0.0000000000       1
     1070  1072  1073  1075    1  180.0000000000    1.0041600000       2
     1070  1072  1073  1097    1  180.0000000000    1.0041600000       2
     1102  1072  1073  1074    1  0.0000000000      0.0000000000       1
     1102  1072  1073  1075    1  180.0000000000    1.0041600000       2
     1102  1072  1073  1097    1  180.0000000000    1.0041600000       2
     1070  1072  1102  1075    1  180.0000000000    15.1670000000      2
     1070  1072  1102  1103    1  180.0000000000    15.1670000000      2
     1073  1072  1102  1075    1  180.0000000000    15.1670000000      2
     1073  1072  1102  1103    1  180.0000000000    15.1670000000      2
     3415  3416  3418  3419    1  180.0000000000    15.1670000000      2
     3415  3416  3418  3448    1  180.0000000000    15.1670000000      2
     3417  3416  3418  3419    1  180.0000000000    15.1670000000      2
     3417  3416  3418  3448    1  180.0000000000    15.1670000000      2
     3392  3414  3415  3386    1  180.0000000000    15.1670000000      2
     3392  3414  3415  3416    1  180.0000000000    15.1670000000      2
     3449  3414  3415  3386    1  180.0000000000    15.1670000000      2
     3449  3414  3415  3416    1  180.0000000000    15.1670000000      2
     3392  3414  3449  3448    1  180.0000000000    15.1670000000      2
     3392  3414  3449  3450    1  180.0000000000    15.1670000000      2
     3415  3414  3449  3448    1  180.0000000000    15.1670000000      2
     3415  3414  3449  3450    1  180.0000000000    15.1670000000      2
     4798  4828  4829  4794    1  180.0000000000    15.1670000000      2
     4798  4828  4829  4830    1  180.0000000000    15.1670000000      2
     4801  4828  4829  4794    1  180.0000000000    15.1670000000      2
     4801  4828  4829  4830    1  180.0000000000    15.1670000000      2
     4772  4773  4775  4776    1  180.0000000000    15.1670000000      2
     4772  4773  4775  4791    1  180.0000000000    15.1670000000      2
     4774  4773  4775  4776    1  180.0000000000    15.1670000000      2
     4774  4773  4775  4791    1  180.0000000000    15.1670000000      2
     4773  4775  4776  4777    1  0.0000000000      0.0000000000       1
     4773  4775  4776  4778    1  180.0000000000    1.0041600000       2
     4773  4775  4776  4786    1  180.0000000000    1.0041600000       2
     4791  4775  4776  4777    1  0.0000000000      0.0000000000       1
     4791  4775  4776  4778    1  180.0000000000    1.0041600000       2
     4791  4775  4776  4786    1  180.0000000000    1.0041600000       2
     4773  4775  4791  4778    1  180.0000000000    15.1670000000      2
     4773  4775  4791  4792    1  180.0000000000    15.1670000000      2
     4776  4775  4791  4778    1  180.0000000000    15.1670000000      2
     4776  4775  4791  4792    1  180.0000000000    15.1670000000      2
     1079  1081  1082  1083    1  180.0000000000    15.1670000000      2
     1079  1081  1082  1095    1  180.0000000000    15.1670000000      2
     1090  1081  1082  1083    1  180.0000000000    15.1670000000      2
     1090  1081  1082  1095    1  180.0000000000    15.1670000000      2
     1079  1081  1090  1091    1  180.0000000000    15.1670000000      2
     1082  1081  1090  1089    1  180.0000000000    15.1670000000      2
     1082  1081  1090  1091    1  180.0000000000    15.1670000000      2
     4775  4776  4778  4779    1  0.0000000000      0.6508444444       3
     4775  4776  4778  4780    1  0.0000000000      0.6508444444       3
     4775  4776  4778  4791    1  0.0000000000      0.6508444444       3
     4777  4776  4778  4779    1  0.0000000000      0.6508444444       3
     4777  4776  4778  4780    1  0.0000000000      0.6508444444       3
     4777  4776  4778  4791    1  0.0000000000      0.6508444444       3
     4786  4776  4778  4779    1  0.0000000000      0.6508444444       3
     4786  4776  4778  4780    1  0.0000000000      0.6508444444       3
     4786  4776  4778  4791    1  0.0000000000      0.6508444444       3
     4775  4776  4786  4787    1  0.0000000000      0.6508444444       3
     4775  4776  4786  4788    1  0.0000000000      0.6508444444       3
     4777  4776  4786  4787    1  0.0000000000      0.5020800000       3
     4777  4776  4786  4788    1  0.0000000000      0.5439200000       3
     4778  4776  4786  4787    1  0.0000000000      0.5439200000       3
     4778  4776  4786  4788    1  0.0000000000      2.1756800000       3
     3418  3419  3421  3422    1  0.0000000000      0.6508444444       3
     3418  3419  3421  3423    1  0.0000000000      0.6508444444       3
     3418  3419  3421  3448    1  0.0000000000      0.6508444444       3
     3420  3419  3421  3422    1  0.0000000000      0.6508444444       3
     3420  3419  3421  3423    1  0.0000000000      0.6508444444       3
     3420  3419  3421  3448    1  0.0000000000      0.6508444444       3
     3443  3419  3421  3422    1  0.0000000000      0.6508444444       3
     3443  3419  3421  3423    1  0.0000000000      0.6508444444       3
     3443  3419  3421  3448    1  0.0000000000      0.6508444444       3
     3418  3419  3443  3441    1  0.0000000000      0.6508444444       3
     3418  3419  3443  3444    1  0.0000000000      0.6508444444       3
     3418  3419  3443  3445    1  0.0000000000      0.6508444444       3
     3420  3419  3443  3441    1  0.0000000000      0.5439200000       3
     3420  3419  3443  3444    1  0.0000000000      0.5020800000       3
     3420  3419  3443  3445    1  0.0000000000      0.5439200000       3
     3421  3419  3443  3441    1  0.0000000000      2.1756800000       3
     3421  3419  3443  3444    1  0.0000000000      0.5439200000       3
     3421  3419  3443  3445    1  0.0000000000      2.1756800000       3
     176   200   202   180     1  0.0000000000      0.6508444444       3
     176   200   202   203     1  0.0000000000      0.6508444444       3
     176   200   202   204     1  0.0000000000      0.6508444444       3
     198   200   202   180     1  0.0000000000      0.6508444444       3
     198   200   202   203     1  0.0000000000      0.6508444444       3
     198   200   202   204     1  0.0000000000      0.6508444444       3
     201   200   202   180     1  0.0000000000      0.5439200000       3
     201   200   202   203     1  0.0000000000      0.5020800000       3
     201   200   202   204     1  0.0000000000      0.5020800000       3
     1073  1097  1099  1077    1  0.0000000000      0.6508444444       3
     1073  1097  1099  1100    1  0.0000000000      0.6508444444       3
     1073  1097  1099  1101    1  0.0000000000      0.6508444444       3
     1095  1097  1099  1077    1  0.0000000000      0.6508444444       3
     1095  1097  1099  1100    1  0.0000000000      0.6508444444       3
     1095  1097  1099  1101    1  0.0000000000      0.6508444444       3
     1098  1097  1099  1077    1  0.0000000000      0.5439200000       3
     1098  1097  1099  1100    1  0.0000000000      0.5020800000       3
     1098  1097  1099  1101    1  0.0000000000      0.5020800000       3
     1079  1095  1097  1073    1  0.0000000000      2.1756800000       3
     1079  1095  1097  1098    1  0.0000000000      0.5439200000       3
     1079  1095  1097  1099    1  0.0000000000      2.1756800000       3
     1082  1095  1097  1073    1  0.0000000000      0.6508444444       3
     1082  1095  1097  1098    1  0.0000000000      0.6508444444       3
     1082  1095  1097  1099    1  0.0000000000      0.6508444444       3
     1096  1095  1097  1073    1  0.0000000000      0.5439200000       3
     1096  1095  1097  1098    1  0.0000000000      0.5020800000       3
     1096  1095  1097  1099    1  0.0000000000      0.5439200000       3
     1072  1073  1075  1076    1  0.0000000000      0.6508444444       3
     1072  1073  1075  1077    1  0.0000000000      0.6508444444       3
     1072  1073  1075  1102    1  0.0000000000      0.6508444444       3
     1074  1073  1075  1076    1  0.0000000000      0.6508444444       3
     1074  1073  1075  1077    1  0.0000000000      0.6508444444       3
     1074  1073  1075  1102    1  0.0000000000      0.6508444444       3
     1097  1073  1075  1076    1  0.0000000000      0.6508444444       3
     1097  1073  1075  1077    1  0.0000000000      0.6508444444       3
     1097  1073  1075  1102    1  0.0000000000      0.6508444444       3
     1072  1073  1097  1095    1  0.0000000000      0.6508444444       3
     1072  1073  1097  1098    1  0.0000000000      0.6508444444       3
     1072  1073  1097  1099    1  0.0000000000      0.6508444444       3
     1074  1073  1097  1095    1  0.0000000000      0.5439200000       3
     1074  1073  1097  1098    1  0.0000000000      0.5020800000       3
     1074  1073  1097  1099    1  0.0000000000      0.5439200000       3
     1075  1073  1097  1095    1  0.0000000000      2.1756800000       3
     1075  1073  1097  1098    1  0.0000000000      0.5439200000       3
     1075  1073  1097  1099    1  0.0000000000      2.1756800000       3
     3428  3429  3430  3431    1  0.0000000000      0.0000000000       2
     3428  3429  3430  3432    1  0.0000000000      0.0000000000       2
     3428  3429  3430  3433    1  0.0000000000      0.0000000000       2
     3428  3429  3434  3435    1  180.0000000000    15.1670000000      2
     3430  3429  3434  3435    1  180.0000000000    15.1670000000      2
     3434  3429  3428  3441    1  180.0000000000    15.1670000000      2
     3430  3429  3434  3611    1  180.0000000000    15.1670000000      2
     3428  3429  3434  3611    1  180.0000000000    15.1670000000      2
     176   178   180   181     1  0.0000000000      0.5439200000       3
     176   178   180   182     1  0.0000000000      2.1756800000       3
     176   178   180   202     1  0.0000000000      2.1756800000       3
     179   178   180   181     1  0.0000000000      0.5020800000       3
     179   178   180   182     1  0.0000000000      0.5439200000       3
     179   178   180   202     1  0.0000000000      0.5439200000       3
     205   178   180   181     1  0.0000000000      0.6508444444       3
     205   178   180   182     1  0.0000000000      0.6508444444       3
     205   178   180   202     1  0.0000000000      0.6508444444       3
     176   178   205   175     1  180.0000000000    1.0041600000       2
     176   178   205   206     1  180.0000000000    1.0041600000       2
     179   178   205   175     1  0.0000000000      0.0000000000       1
     179   178   205   206     1  0.0000000000      0.0000000000       1
     180   178   205   175     1  180.0000000000    1.0041600000       2
     180   178   205   206     1  180.0000000000    1.0041600000       2
     3434  3435  3436  3427    1  180.0000000000    15.1670000000      2
     3436  3435  3434  3611    1  180.0000000000    15.1670000000      2
     3436  3435  3609  3610    1  0.0000000000      0.0000000000       1
     3434  3435  3609  3610    1  0.0000000000      0.0000000000       1
     3436  3435  3609  3611    1  180.0000000000    1.0041600000       2
     3434  3435  3609  3611    1  180.0000000000    1.0041600000       2
     3436  3435  3609  3607    1  180.0000000000    1.0041600000       2
     3434  3435  3609  3607    1  180.0000000000    1.0041600000       2
     1072  1102  1103  1068    1  180.0000000000    15.1670000000      2
     1072  1102  1103  1104    1  180.0000000000    15.1670000000      2
     1075  1102  1103  1068    1  180.0000000000    15.1670000000      2
     1075  1102  1103  1104    1  180.0000000000    15.1670000000      2
     4772  4794  4795  4766    1  180.0000000000    15.1670000000      2
     4772  4794  4795  4796    1  180.0000000000    15.1670000000      2
     4829  4794  4795  4766    1  180.0000000000    15.1670000000      2
     4829  4794  4795  4796    1  180.0000000000    15.1670000000      2
     4772  4794  4829  4828    1  180.0000000000    15.1670000000      2
     4772  4794  4829  4830    1  180.0000000000    15.1670000000      2
     4795  4794  4829  4828    1  180.0000000000    15.1670000000      2
     4795  4794  4829  4830    1  180.0000000000    15.1670000000      2
     4776  4778  4780  4781    1  0.0000000000      0.5439200000       3
     4776  4778  4780  4788    1  0.0000000000      2.1756800000       3
     4779  4778  4780  4781    1  0.0000000000      0.5020800000       3
     4779  4778  4780  4788    1  0.0000000000      0.5439200000       3
     4791  4778  4780  4781    1  0.0000000000      0.6508444444       3
     4791  4778  4780  4788    1  0.0000000000      0.6508444444       3
     4776  4778  4791  4775    1  180.0000000000    1.0041600000       2
     4776  4778  4791  4792    1  180.0000000000    1.0041600000       2
     4779  4778  4791  4775    1  0.0000000000      0.0000000000       1
     4779  4778  4791  4792    1  0.0000000000      0.0000000000       1
     4780  4778  4791  4775    1  180.0000000000    1.0041600000       2
     4780  4778  4791  4792    1  180.0000000000    1.0041600000       2
     3419  3443  3445  3423    1  0.0000000000      0.6508444444       3
     3419  3443  3445  3446    1  0.0000000000      0.6508444444       3
     3419  3443  3445  3447    1  0.0000000000      0.6508444444       3
     3441  3443  3445  3423    1  0.0000000000      0.6508444444       3
     3441  3443  3445  3446    1  0.0000000000      0.6508444444       3
     3441  3443  3445  3447    1  0.0000000000      0.6508444444       3
     3444  3443  3445  3423    1  0.0000000000      0.5439200000       3
     3444  3443  3445  3446    1  0.0000000000      0.5020800000       3
     3444  3443  3445  3447    1  0.0000000000      0.5020800000       3
     4775  4791  4792  4771    1  180.0000000000    15.1670000000      2
     4775  4791  4792  4793    1  180.0000000000    15.1670000000      2
     4778  4791  4792  4771    1  180.0000000000    15.1670000000      2
     4778  4791  4792  4793    1  180.0000000000    15.1670000000      2
     3425  3441  3443  3419    1  0.0000000000      2.1756800000       3
     3425  3441  3443  3444    1  0.0000000000      0.5439200000       3
     3425  3441  3443  3445    1  0.0000000000      2.1756800000       3
     3428  3441  3443  3419    1  0.0000000000      0.6508444444       3
     3428  3441  3443  3444    1  0.0000000000      0.6508444444       3
     3428  3441  3443  3445    1  0.0000000000      0.6508444444       3
     3442  3441  3443  3419    1  0.0000000000      0.5439200000       3
     3442  3441  3443  3444    1  0.0000000000      0.5020800000       3
     3442  3441  3443  3445    1  0.0000000000      0.5439200000       3
     1088  1083  1082  1095    1  180.0000000000    15.1670000000      2
     1082  1083  1084  1085    1  0.0000000000      0.0000000000       2
     1082  1083  1084  1086    1  0.0000000000      0.0000000000       2
     1082  1083  1084  1087    1  0.0000000000      0.0000000000       2
     1082  1083  1088  1089    1  180.0000000000    15.1670000000      2
     1084  1083  1088  1089    1  180.0000000000    15.1670000000      2
     1082  1083  1088  4161    1  180.0000000000    15.1670000000      2
     1084  1083  1088  4161    1  180.0000000000    15.1670000000      2
     4786  4784  4782  4783    1  0.0000000000      0.6508444444       3
     6884  4784  4782  4783    1  0.0000000000      0.6508444444       3
     6884  4784  4782  6885    1  0.0000000000      0.6508444444       3
     4786  4784  4782  6885    1  0.0000000000      0.6508444444       3
     4771  4772  4773  4774    1  180.0000000000    15.1670000000      2
     4771  4772  4773  4775    1  180.0000000000    15.1670000000      2
     4794  4772  4773  4774    1  180.0000000000    15.1670000000      2
     4794  4772  4773  4775    1  180.0000000000    15.1670000000      2
     4771  4772  4794  4795    1  180.0000000000    4.1840000000       2
     4771  4772  4794  4829    1  180.0000000000    4.1840000000       2
     4773  4772  4794  4795    1  180.0000000000    4.1840000000       2
     4773  4772  4794  4829    1  180.0000000000    4.1840000000       2
     5261  5263  5265  5266    1  0.0000000000      0.6508444444       3
     5261  5263  5265  5267    1  0.0000000000      0.6508444444       3
     5264  5263  5265  5266    1  0.0000000000      0.5020800000       3
     5264  5263  5265  5267    1  0.0000000000      0.5439200000       3
     5271  5263  5265  5266    1  0.0000000000      0.5439200000       3
     5271  5263  5265  5267    1  0.0000000000      2.1756800000       3
     5261  5263  5271  5269    1  0.0000000000      0.6508444444       3
     5261  5263  5271  5272    1  0.0000000000      0.6508444444       3
     5261  5263  5271  5273    1  0.0000000000      0.6508444444       3
     5264  5263  5271  5269    1  0.0000000000      0.5439200000       3
     5264  5263  5271  5272    1  0.0000000000      0.5020800000       3
     5264  5263  5271  5273    1  0.0000000000      0.5020800000       3
     5265  5263  5271  5269    1  0.0000000000      2.1756800000       3
     5265  5263  5271  5272    1  0.0000000000      0.5439200000       3
     5265  5263  5271  5273    1  0.0000000000      0.5439200000       3
     4780  4782  4784  4785    1  0.0000000000      0.6508444444       3
     4780  4782  4784  4786    1  0.0000000000      0.6508444444       3
     4783  4782  4784  4785    1  0.0000000000      0.6508444444       3
     4780  4782  4784  6884    1  0.0000000000      0.6508444444       3
     6885  4782  4784  4785    1  0.0000000000      0.6508444444       3
     4782  4780  4778  4776    1  0.0000000000      2.1756800000       3
     4782  4780  4778  4779    1  0.0000000000      0.5439200000       3
     4782  4780  4778  4791    1  0.0000000000      0.6508444444       3
     4778  4780  4782  4783    1  0.0000000000      0.5439200000       3
     4778  4780  4782  4784    1  0.0000000000      2.1756800000       3
     4781  4780  4782  4783    1  0.0000000000      0.5020800000       3
     4781  4780  4782  4784    1  0.0000000000      0.5439200000       3
     4788  4780  4782  4783    1  0.0000000000      0.5439200000       3
     4788  4780  4782  4784    1  0.0000000000      2.1756800000       3
     4778  4780  4788  4786    1  0.0000000000      0.6508444444       3
     4778  4780  4788  4789    1  0.0000000000      0.6508444444       3
     4778  4780  4788  4790    1  0.0000000000      0.6508444444       3
     4781  4780  4788  4786    1  0.0000000000      0.5439200000       3
     4781  4780  4788  4789    1  0.0000000000      0.5020800000       3
     4781  4780  4788  4790    1  0.0000000000      0.5020800000       3
     4782  4780  4788  4789    1  0.0000000000      0.6508444444       3
     4782  4780  4788  4790    1  0.0000000000      0.6508444444       3
     4778  4780  4782  6885    1  0.0000000000      0.6508444444       3
     4781  4780  4782  6885    1  0.0000000000      0.6508444444       3
     4788  4780  4782  6885    1  0.0000000000      0.6508444444       3
     5777  5776  5775  5780    1  0.0000000000      0.0000000000       2
     5778  5776  5775  5780    1  0.0000000000      0.0000000000       2
     5779  5776  5775  5780    1  0.0000000000      0.0000000000       2
     5249  5278  5279  5280    1  180.0000000000    15.1670000000      2
     5249  5278  5279  5281    1  180.0000000000    15.1670000000      2
     5277  5278  5279  5280    1  180.0000000000    15.1670000000      2
     5277  5278  5279  5281    1  180.0000000000    15.1670000000      2
     5245  5249  5250  5251    1  0.0000000000      0.5439200000       3
     5245  5249  5250  5252    1  0.0000000000      0.5439200000       3
     5245  5249  5250  5253    1  0.0000000000      0.5439200000       3
     5254  5249  5250  5251    1  0.0000000000      0.6508444444       3
     5254  5249  5250  5252    1  0.0000000000      0.6508444444       3
     5254  5249  5250  5253    1  0.0000000000      0.6508444444       3
     5278  5249  5250  5251    1  0.0000000000      0.6508444444       3
     5278  5249  5250  5252    1  0.0000000000      0.6508444444       3
     5278  5249  5250  5253    1  0.0000000000      0.6508444444       3
     5245  5249  5254  5255    1  0.0000000000      0.0000000000       2
     5245  5249  5254  5275    1  180.0000000000    1.0041600000       2
     5250  5249  5254  5255    1  0.0000000000      0.0000000000       2
     5250  5249  5254  5275    1  180.0000000000    1.0041600000       2
     5278  5249  5254  5255    1  0.0000000000      0.0000000000       2
     5278  5249  5254  5275    1  180.0000000000    0.0000000000       2
     5245  5249  5278  5277    1  0.0000000000      0.0000000000       2
     5245  5249  5278  5279    1  180.0000000000    1.0041600000       2
     5250  5249  5278  5277    1  0.0000000000      0.0000000000       2
     5250  5249  5278  5279    1  180.0000000000    1.0041600000       2
     5254  5249  5278  5277    1  0.0000000000      0.0000000000       2
     5254  5249  5278  5279    1  180.0000000000    0.0000000000       2
     1075  1077  1079  1080    1  0.0000000000      0.5439200000       3
     1075  1077  1079  1081    1  0.0000000000      0.6508444444       3
     1075  1077  1079  1095    1  0.0000000000      2.1756800000       3
     1078  1077  1079  1080    1  0.0000000000      0.5020800000       3
     1078  1077  1079  1081    1  0.0000000000      0.6508444444       3
     1078  1077  1079  1095    1  0.0000000000      0.5439200000       3
     1099  1077  1079  1080    1  0.0000000000      0.5439200000       3
     1099  1077  1079  1081    1  0.0000000000      0.6508444444       3
     1099  1077  1079  1095    1  0.0000000000      2.1756800000       3
     1075  1077  1099  1097    1  0.0000000000      0.6508444444       3
     1075  1077  1099  1100    1  0.0000000000      0.6508444444       3
     1075  1077  1099  1101    1  0.0000000000      0.6508444444       3
     1078  1077  1099  1097    1  0.0000000000      0.5439200000       3
     1078  1077  1099  1100    1  0.0000000000      0.5020800000       3
     1078  1077  1099  1101    1  0.0000000000      0.5020800000       3
     1079  1077  1099  1097    1  0.0000000000      0.6508444444       3
     1079  1077  1099  1100    1  0.0000000000      0.6508444444       3
     1079  1077  1099  1101    1  0.0000000000      0.6508444444       3
     5258  5274  5275  5254    1  180.0000000000    15.1670000000      2
     5258  5274  5275  5276    1  180.0000000000    15.1670000000      2
     5261  5274  5275  5254    1  180.0000000000    15.1670000000      2
     5261  5274  5275  5276    1  180.0000000000    15.1670000000      2
     1077  1079  1081  1082    1  180.0000000000    1.0041600000       2
     1077  1079  1081  1090    1  180.0000000000    1.0041600000       2
     1080  1079  1081  1082    1  0.0000000000      0.0000000000       1
     1080  1079  1081  1090    1  0.0000000000      0.0000000000       1
     1095  1079  1081  1082    1  180.0000000000    1.0041600000       2
     1095  1079  1081  1090    1  180.0000000000    1.0041600000       2
     1077  1079  1095  1082    1  0.0000000000      0.6508444444       3
     1077  1079  1095  1096    1  0.0000000000      0.6508444444       3
     1077  1079  1095  1097    1  0.0000000000      0.6508444444       3
     1080  1079  1095  1082    1  0.0000000000      0.6508444444       3
     1080  1079  1095  1096    1  0.0000000000      0.6508444444       3
     1080  1079  1095  1097    1  0.0000000000      0.6508444444       3
     1081  1079  1095  1082    1  0.0000000000      0.6508444444       3
     1081  1079  1095  1096    1  0.0000000000      0.6508444444       3
     1081  1079  1095  1097    1  0.0000000000      0.6508444444       3
     5246  5245  5249  5250    1  0.0000000000      0.5439200000       3
     5246  5245  5249  5254    1  0.0000000000      0.6508444444       3
     5246  5245  5249  5278    1  0.0000000000      0.6508444444       3
     5247  5245  5249  5250    1  0.0000000000      0.5439200000       3
     5247  5245  5249  5254    1  0.0000000000      0.6508444444       3
     5247  5245  5249  5278    1  0.0000000000      0.6508444444       3
     5248  5245  5249  5250    1  0.0000000000      0.5439200000       3
     5248  5245  5249  5254    1  0.0000000000      0.6508444444       3
     5248  5245  5249  5278    1  0.0000000000      0.6508444444       3
     316   318   320   321     1  0.0000000000      0.5439200000       3
     316   318   320   322     1  0.0000000000      0.6508444444       3
     316   318   320   336     1  0.0000000000      2.1756800000       3
     319   318   320   321     1  0.0000000000      0.5020800000       3
     319   318   320   322     1  0.0000000000      0.6508444444       3
     319   318   320   336     1  0.0000000000      0.5439200000       3
     340   318   320   321     1  0.0000000000      0.5439200000       3
     340   318   320   322     1  0.0000000000      0.6508444444       3
     340   318   320   336     1  0.0000000000      2.1756800000       3
     316   318   340   338     1  0.0000000000      0.6508444444       3
     316   318   340   341     1  0.0000000000      0.6508444444       3
     316   318   340   342     1  0.0000000000      0.6508444444       3
     319   318   340   338     1  0.0000000000      0.5439200000       3
     319   318   340   341     1  0.0000000000      0.5020800000       3
     319   318   340   342     1  0.0000000000      0.5020800000       3
     320   318   340   338     1  0.0000000000      0.6508444444       3
     320   318   340   341     1  0.0000000000      0.6508444444       3
     320   318   340   342     1  0.0000000000      0.6508444444       3
     5254  5255  5256  5257    1  180.0000000000    15.1670000000      2
     5254  5255  5256  5258    1  180.0000000000    15.1670000000      2
     5277  5255  5256  5257    1  180.0000000000    15.1670000000      2
     5277  5255  5256  5258    1  180.0000000000    15.1670000000      2
     5254  5255  5277  5278    1  180.0000000000    4.1840000000       2
     5254  5255  5277  5312    1  180.0000000000    4.1840000000       2
     5256  5255  5277  5278    1  180.0000000000    4.1840000000       2
     5256  5255  5277  5312    1  180.0000000000    4.1840000000       2
     1073  1075  1077  1078    1  0.0000000000      0.5439200000       3
     1073  1075  1077  1079    1  0.0000000000      2.1756800000       3
     1073  1075  1077  1099    1  0.0000000000      2.1756800000       3
     1076  1075  1077  1078    1  0.0000000000      0.5020800000       3
     1076  1075  1077  1079    1  0.0000000000      0.5439200000       3
     1076  1075  1077  1099    1  0.0000000000      0.5439200000       3
     1102  1075  1077  1078    1  0.0000000000      0.6508444444       3
     1102  1075  1077  1079    1  0.0000000000      0.6508444444       3
     1102  1075  1077  1099    1  0.0000000000      0.6508444444       3
     1073  1075  1102  1072    1  180.0000000000    1.0041600000       2
     1073  1075  1102  1103    1  180.0000000000    1.0041600000       2
     1076  1075  1102  1072    1  0.0000000000      0.0000000000       1
     1076  1075  1102  1103    1  0.0000000000      0.0000000000       1
     1077  1075  1102  1072    1  180.0000000000    1.0041600000       2
     1077  1075  1102  1103    1  180.0000000000    1.0041600000       2
     5249  5254  5255  5256    1  180.0000000000    15.1670000000      2
     5249  5254  5255  5277    1  180.0000000000    15.1670000000      2
     5275  5254  5255  5256    1  180.0000000000    15.1670000000      2
     5275  5254  5255  5277    1  180.0000000000    15.1670000000      2
     5249  5254  5275  5274    1  180.0000000000    15.1670000000      2
     5249  5254  5275  5276    1  180.0000000000    15.1670000000      2
     5255  5254  5275  5274    1  180.0000000000    15.1670000000      2
     5255  5254  5275  5276    1  180.0000000000    15.1670000000      2
     2841  2843  2844  2845    1  0.0000000000      0.0000000000       1
     2841  2843  2844  2846    1  180.0000000000    1.0041600000       2
     2841  2843  2844  2854    1  180.0000000000    1.0041600000       2
     2859  2843  2844  2845    1  0.0000000000      0.0000000000       1
     2859  2843  2844  2846    1  180.0000000000    1.0041600000       2
     2859  2843  2844  2854    1  180.0000000000    1.0041600000       2
     2841  2843  2859  2846    1  180.0000000000    15.1670000000      2
     2841  2843  2859  2860    1  180.0000000000    15.1670000000      2
     2844  2843  2859  2846    1  180.0000000000    15.1670000000      2
     2844  2843  2859  2860    1  180.0000000000    15.1670000000      2
     2843  2844  2846  2847    1  0.0000000000      0.6508444444       3
     2843  2844  2846  2848    1  0.0000000000      0.6508444444       3
     2843  2844  2846  2859    1  0.0000000000      0.6508444444       3
     2845  2844  2846  2847    1  0.0000000000      0.6508444444       3
     2845  2844  2846  2848    1  0.0000000000      0.6508444444       3
     2845  2844  2846  2859    1  0.0000000000      0.6508444444       3
     2854  2844  2846  2847    1  0.0000000000      0.6508444444       3
     2854  2844  2846  2848    1  0.0000000000      0.6508444444       3
     2854  2844  2846  2859    1  0.0000000000      0.6508444444       3
     2843  2844  2854  2855    1  0.0000000000      0.6508444444       3
     2843  2844  2854  2856    1  0.0000000000      0.6508444444       3
     2845  2844  2854  2855    1  0.0000000000      0.5020800000       3
     2845  2844  2854  2856    1  0.0000000000      0.5439200000       3
     2846  2844  2854  2855    1  0.0000000000      0.5439200000       3
     2846  2844  2854  2856    1  0.0000000000      2.1756800000       3
     2852  2854  2844  2843    1  0.0000000000      0.6508444444       3
     2852  2854  2844  2845    1  0.0000000000      0.5439200000       3
     2852  2854  2844  2846    1  0.0000000000      2.1756800000       3
     2844  2854  2852  2850    1  0.0000000000      2.1756800000       3
     2855  2854  2852  2850    1  0.0000000000      0.5439200000       3
     2856  2854  2852  2850    1  0.0000000000      2.1756800000       3
     2844  2854  2852  2853    1  0.0000000000      0.5439200000       3
     2855  2854  2852  2853    1  0.0000000000      0.5020800000       3
     2856  2854  2852  2853    1  0.0000000000      0.5439200000       3
     2844  2854  2856  2848    1  0.0000000000      0.6508444444       3
     2844  2854  2856  2857    1  0.0000000000      0.6508444444       3
     2844  2854  2856  2858    1  0.0000000000      0.6508444444       3
     2852  2854  2856  2857    1  0.0000000000      0.6508444444       3
     2852  2854  2856  2858    1  0.0000000000      0.6508444444       3
     2855  2854  2856  2848    1  0.0000000000      0.5439200000       3
     2855  2854  2856  2857    1  0.0000000000      0.5020800000       3
     2855  2854  2856  2858    1  0.0000000000      0.5020800000       3
     2844  2854  2852  191     1  0.0000000000      0.6508444444       3
     2855  2854  2852  191     1  0.0000000000      0.6508444444       3
     2856  2854  2852  191     1  0.0000000000      0.6508444444       3
     2854  2852  2850  2851    1  0.0000000000      0.6508444444       3
     2854  2852  2850  192     1  0.0000000000      0.6508444444       3
     191   2852  2850  2851    1  0.0000000000      0.6508444444       3
     2854  2856  2848  2850    1  0.0000000000      0.6508444444       3
     2848  2856  2854  2852    1  0.0000000000      0.6508444444       3
     2848  2850  2852  2853    1  0.0000000000      0.6508444444       3
     2848  2850  2852  2854    1  0.0000000000      0.6508444444       3
     2851  2850  2852  2853    1  0.0000000000      0.6508444444       3
     192   2850  2852  2853    1  0.0000000000      0.6508444444       3
     192   2850  2852  191     1  0.0000000000      0.6508444444       3
     2848  2850  2852  191     1  0.0000000000      0.6508444444       3
     186   191   192   193     1  180.0000000000    15.1670000000      2
     186   191   192   2850    1  180.0000000000    15.1670000000      2
     186   191   2852  2850    1  180.0000000000    1.0041600000       2
     192   191   2852  2850    1  180.0000000000    1.0041600000       2
     186   191   2852  2853    1  0.0000000000      0.0000000000       1
     192   191   2852  2853    1  0.0000000000      0.0000000000       1
     186   191   2852  2854    1  180.0000000000    1.0041600000       2
     192   191   2852  2854    1  180.0000000000    1.0041600000       2
     191   192   193   184     1  180.0000000000    15.1670000000      2
     2850  192   191   2852    1  180.0000000000    15.1670000000      2
     191   192   2850  2848    1  180.0000000000    1.0041600000       2
     193   192   2850  2848    1  180.0000000000    1.0041600000       2
     191   192   2850  2851    1  0.0000000000      0.0000000000       1
     193   192   2850  2851    1  0.0000000000      0.0000000000       1
     191   192   2850  2852    1  180.0000000000    1.0041600000       2
     193   192   2850  2852    1  180.0000000000    1.0041600000       2
     193   192   191   2852    1  180.0000000000    15.1670000000      2
     191   186   185   198     1  180.0000000000    15.1670000000      2
     185   186   187   188     1  0.0000000000      0.0000000000       2
     185   186   187   189     1  0.0000000000      0.0000000000       2
     185   186   187   190     1  0.0000000000      0.0000000000       2
     185   186   191   192     1  180.0000000000    15.1670000000      2
     187   186   191   192     1  180.0000000000    15.1670000000      2
     185   186   191   2852    1  180.0000000000    15.1670000000      2
     187   186   191   2852    1  180.0000000000    15.1670000000      2
     188   187   186   191     1  0.0000000000      0.0000000000       2
     189   187   186   191     1  0.0000000000      0.0000000000       2
     190   187   186   191     1  0.0000000000      0.0000000000       2
     2840  2841  2843  2844    1  180.0000000000    15.1670000000      2
     2840  2841  2843  2859    1  180.0000000000    15.1670000000      2
     2842  2841  2843  2844    1  180.0000000000    15.1670000000      2
     2842  2841  2843  2859    1  180.0000000000    15.1670000000      2
     6181  6183  6185  6186    1  0.0000000000      0.5439200000       3
     6181  6183  6185  6187    1  0.0000000000      0.6508444444       3
     6181  6183  6185  6201    1  0.0000000000      2.1756800000       3
     6184  6183  6185  6186    1  0.0000000000      0.5020800000       3
     6184  6183  6185  6187    1  0.0000000000      0.6508444444       3
     6184  6183  6185  6201    1  0.0000000000      0.5439200000       3
     6205  6183  6185  6186    1  0.0000000000      0.5439200000       3
     6205  6183  6185  6187    1  0.0000000000      0.6508444444       3
     6205  6183  6185  6201    1  0.0000000000      2.1756800000       3
     6181  6183  6205  6203    1  0.0000000000      0.6508444444       3
     6181  6183  6205  6206    1  0.0000000000      0.6508444444       3
     6181  6183  6205  6207    1  0.0000000000      0.6508444444       3
     6184  6183  6205  6203    1  0.0000000000      0.5439200000       3
     6184  6183  6205  6206    1  0.0000000000      0.5020800000       3
     6184  6183  6205  6207    1  0.0000000000      0.5020800000       3
     6185  6183  6205  6203    1  0.0000000000      0.6508444444       3
     6185  6183  6205  6206    1  0.0000000000      0.6508444444       3
     6185  6183  6205  6207    1  0.0000000000      0.6508444444       3
     6183  6185  6187  6188    1  180.0000000000    1.0041600000       2
     6183  6185  6187  6196    1  180.0000000000    1.0041600000       2
     6186  6185  6187  6188    1  0.0000000000      0.0000000000       1
     6186  6185  6187  6196    1  0.0000000000      0.0000000000       1
     6201  6185  6187  6188    1  180.0000000000    1.0041600000       2
     6201  6185  6187  6196    1  180.0000000000    1.0041600000       2
     6183  6185  6201  6188    1  0.0000000000      0.6508444444       3
     6183  6185  6201  6202    1  0.0000000000      0.6508444444       3
     6183  6185  6201  6203    1  0.0000000000      0.6508444444       3
     6186  6185  6201  6188    1  0.0000000000      0.6508444444       3
     6186  6185  6201  6202    1  0.0000000000      0.6508444444       3
     6186  6185  6201  6203    1  0.0000000000      0.6508444444       3
     6187  6185  6201  6188    1  0.0000000000      0.6508444444       3
     6187  6185  6201  6202    1  0.0000000000      0.6508444444       3
     6187  6185  6201  6203    1  0.0000000000      0.6508444444       3
     184   185   186   187     1  180.0000000000    15.1670000000      2
     184   185   186   191     1  180.0000000000    15.1670000000      2
     198   185   186   187     1  180.0000000000    15.1670000000      2
     184   185   198   182     1  180.0000000000    1.0041600000       2
     184   185   198   199     1  0.0000000000      0.0000000000       1
     184   185   198   200     1  180.0000000000    1.0041600000       2
     186   185   198   182     1  180.0000000000    1.0041600000       2
     186   185   198   199     1  0.0000000000      0.0000000000       1
     186   185   198   200     1  180.0000000000    1.0041600000       2
     149   171   172   143     1  180.0000000000    15.1670000000      2
     149   171   172   173     1  180.0000000000    15.1670000000      2
     206   171   172   143     1  180.0000000000    15.1670000000      2
     206   171   172   173     1  180.0000000000    15.1670000000      2
     149   171   206   205     1  180.0000000000    15.1670000000      2
     149   171   206   207     1  180.0000000000    15.1670000000      2
     172   171   206   205     1  180.0000000000    15.1670000000      2
     172   171   206   207     1  180.0000000000    15.1670000000      2
     175   205   206   171     1  180.0000000000    15.1670000000      2
     175   205   206   207     1  180.0000000000    15.1670000000      2
     178   205   206   171     1  180.0000000000    15.1670000000      2
     178   205   206   207     1  180.0000000000    15.1670000000      2
     2844  2846  2848  2849    1  0.0000000000      0.5439200000       3
     2844  2846  2848  2856    1  0.0000000000      2.1756800000       3
     2847  2846  2848  2849    1  0.0000000000      0.5020800000       3
     2847  2846  2848  2856    1  0.0000000000      0.5439200000       3
     2859  2846  2848  2849    1  0.0000000000      0.6508444444       3
     2859  2846  2848  2856    1  0.0000000000      0.6508444444       3
     2844  2846  2859  2843    1  180.0000000000    1.0041600000       2
     2844  2846  2859  2860    1  180.0000000000    1.0041600000       2
     2847  2846  2859  2843    1  0.0000000000      0.0000000000       1
     2847  2846  2859  2860    1  0.0000000000      0.0000000000       1
     2848  2846  2859  2843    1  180.0000000000    1.0041600000       2
     2848  2846  2859  2860    1  180.0000000000    1.0041600000       2
     6185  6187  6188  6189    1  180.0000000000    15.1670000000      2
     6185  6187  6188  6201    1  180.0000000000    15.1670000000      2
     6196  6187  6188  6189    1  180.0000000000    15.1670000000      2
     6196  6187  6188  6201    1  180.0000000000    15.1670000000      2
     6185  6187  6196  6197    1  180.0000000000    15.1670000000      2
     6188  6187  6196  6195    1  180.0000000000    15.1670000000      2
     6188  6187  6196  6197    1  180.0000000000    15.1670000000      2
     6179  6181  6183  6184    1  0.0000000000      0.5439200000       3
     6179  6181  6183  6185    1  0.0000000000      2.1756800000       3
     6179  6181  6183  6205    1  0.0000000000      2.1756800000       3
     6182  6181  6183  6184    1  0.0000000000      0.5020800000       3
     6182  6181  6183  6185    1  0.0000000000      0.5439200000       3
     6182  6181  6183  6205    1  0.0000000000      0.5439200000       3
     6208  6181  6183  6184    1  0.0000000000      0.6508444444       3
     6208  6181  6183  6185    1  0.0000000000      0.6508444444       3
     6208  6181  6183  6205    1  0.0000000000      0.6508444444       3
     6179  6181  6208  6178    1  180.0000000000    1.0041600000       2
     6179  6181  6208  6209    1  180.0000000000    1.0041600000       2
     6182  6181  6208  6178    1  0.0000000000      0.0000000000       1
     6182  6181  6208  6209    1  0.0000000000      0.0000000000       1
     6183  6181  6208  6178    1  180.0000000000    1.0041600000       2
     6183  6181  6208  6209    1  180.0000000000    1.0041600000       2
     143   172   173   174     1  180.0000000000    15.1670000000      2
     143   172   173   175     1  180.0000000000    15.1670000000      2
     171   172   173   174     1  180.0000000000    15.1670000000      2
     171   172   173   175     1  180.0000000000    15.1670000000      2
     195   194   193   192     1  0.0000000000      0.0000000000       2
     196   194   193   192     1  0.0000000000      0.0000000000       2
     197   194   193   192     1  0.0000000000      0.0000000000       2
     173   175   176   177     1  0.0000000000      0.0000000000       1
     173   175   176   178     1  180.0000000000    1.0041600000       2
     173   175   176   200     1  180.0000000000    1.0041600000       2
     205   175   176   177     1  0.0000000000      0.0000000000       1
     205   175   176   178     1  180.0000000000    1.0041600000       2
     205   175   176   200     1  180.0000000000    1.0041600000       2
     173   175   205   178     1  180.0000000000    15.1670000000      2
     173   175   205   206     1  180.0000000000    15.1670000000      2
     176   175   205   178     1  180.0000000000    15.1670000000      2
     176   175   205   206     1  180.0000000000    15.1670000000      2
     1069  1070  1072  1073    1  180.0000000000    15.1670000000      2
     1069  1070  1072  1102    1  180.0000000000    15.1670000000      2
     1071  1070  1072  1073    1  180.0000000000    15.1670000000      2
     1071  1070  1072  1102    1  180.0000000000    15.1670000000      2
     6178  6208  6209  6174    1  180.0000000000    15.1670000000      2
     6178  6208  6209  6210    1  180.0000000000    15.1670000000      2
     6181  6208  6209  6174    1  180.0000000000    15.1670000000      2
     6181  6208  6209  6210    1  180.0000000000    15.1670000000      2
     192   193   184   182     1  180.0000000000    15.1670000000      2
     194   193   192   191     1  180.0000000000    15.1670000000      2
     184   193   194   195     1  0.0000000000      0.0000000000       2
     184   193   194   196     1  0.0000000000      0.0000000000       2
     184   193   194   197     1  0.0000000000      0.0000000000       2
     184   193   192   2850    1  180.0000000000    15.1670000000      2
     194   193   192   2850    1  180.0000000000    15.1670000000      2
     1040  1069  1070  1071    1  180.0000000000    15.1670000000      2
     1040  1069  1070  1072    1  180.0000000000    15.1670000000      2
     1068  1069  1070  1071    1  180.0000000000    15.1670000000      2
     1068  1069  1070  1072    1  180.0000000000    15.1670000000      2
     140   139   143   144     1  0.0000000000      0.5439200000       3
     140   139   143   148     1  0.0000000000      0.6508444444       3
     140   139   143   172     1  0.0000000000      0.6508444444       3
     141   139   143   144     1  0.0000000000      0.5439200000       3
     141   139   143   148     1  0.0000000000      0.6508444444       3
     141   139   143   172     1  0.0000000000      0.6508444444       3
     142   139   143   144     1  0.0000000000      0.5439200000       3
     142   139   143   148     1  0.0000000000      0.6508444444       3
     142   139   143   172     1  0.0000000000      0.6508444444       3
     182   198   200   176     1  0.0000000000      2.1756800000       3
     182   198   200   201     1  0.0000000000      0.5439200000       3
     182   198   200   202     1  0.0000000000      2.1756800000       3
     185   198   200   176     1  0.0000000000      0.6508444444       3
     185   198   200   201     1  0.0000000000      0.6508444444       3
     185   198   200   202     1  0.0000000000      0.6508444444       3
     199   198   200   176     1  0.0000000000      0.5439200000       3
     199   198   200   201     1  0.0000000000      0.5020800000       3
     199   198   200   202     1  0.0000000000      0.5439200000       3
     182   184   185   186     1  180.0000000000    15.1670000000      2
     182   184   185   198     1  180.0000000000    15.1670000000      2
     193   184   185   186     1  180.0000000000    15.1670000000      2
     193   184   185   198     1  180.0000000000    15.1670000000      2
     182   184   193   194     1  180.0000000000    15.1670000000      2
     185   184   193   192     1  180.0000000000    15.1670000000      2
     185   184   193   194     1  180.0000000000    15.1670000000      2
     175   176   178   179     1  0.0000000000      0.6508444444       3
     175   176   178   180     1  0.0000000000      0.6508444444       3
     175   176   178   205     1  0.0000000000      0.6508444444       3
     177   176   178   179     1  0.0000000000      0.6508444444       3
     177   176   178   180     1  0.0000000000      0.6508444444       3
     177   176   178   205     1  0.0000000000      0.6508444444       3
     200   176   178   179     1  0.0000000000      0.6508444444       3
     200   176   178   180     1  0.0000000000      0.6508444444       3
     200   176   178   205     1  0.0000000000      0.6508444444       3
     175   176   200   198     1  0.0000000000      0.6508444444       3
     175   176   200   201     1  0.0000000000      0.6508444444       3
     175   176   200   202     1  0.0000000000      0.6508444444       3
     177   176   200   198     1  0.0000000000      0.5439200000       3
     177   176   200   201     1  0.0000000000      0.5020800000       3
     177   176   200   202     1  0.0000000000      0.5439200000       3
     178   176   200   198     1  0.0000000000      2.1756800000       3
     178   176   200   201     1  0.0000000000      0.5439200000       3
     178   176   200   202     1  0.0000000000      2.1756800000       3
     4799  4801  4803  4804    1  0.0000000000      0.5439200000       3
     4799  4801  4803  4805    1  0.0000000000      2.1756800000       3
     4799  4801  4803  4825    1  0.0000000000      2.1756800000       3
     4802  4801  4803  4804    1  0.0000000000      0.5020800000       3
     4802  4801  4803  4805    1  0.0000000000      0.5439200000       3
     4802  4801  4803  4825    1  0.0000000000      0.5439200000       3
     4828  4801  4803  4804    1  0.0000000000      0.6508444444       3
     4828  4801  4803  4805    1  0.0000000000      0.6508444444       3
     4828  4801  4803  4825    1  0.0000000000      0.6508444444       3
     4799  4801  4828  4798    1  180.0000000000    1.0041600000       2
     4799  4801  4828  4829    1  180.0000000000    1.0041600000       2
     4802  4801  4828  4798    1  0.0000000000      0.0000000000       1
     4802  4801  4828  4829    1  0.0000000000      0.0000000000       1
     4803  4801  4828  4798    1  180.0000000000    1.0041600000       2
     4803  4801  4828  4829    1  180.0000000000    1.0041600000       2
     2850  2848  2846  2844    1  0.0000000000      2.1756800000       3
     2850  2848  2846  2847    1  0.0000000000      0.5439200000       3
     2850  2848  2846  2859    1  0.0000000000      0.6508444444       3
     2846  2848  2850  2851    1  0.0000000000      0.5439200000       3
     2846  2848  2850  2852    1  0.0000000000      2.1756800000       3
     2849  2848  2850  2851    1  0.0000000000      0.5020800000       3
     2849  2848  2850  2852    1  0.0000000000      0.5439200000       3
     2856  2848  2850  2851    1  0.0000000000      0.5439200000       3
     2856  2848  2850  2852    1  0.0000000000      2.1756800000       3
     2846  2848  2856  2854    1  0.0000000000      0.6508444444       3
     2846  2848  2856  2857    1  0.0000000000      0.6508444444       3
     2846  2848  2856  2858    1  0.0000000000      0.6508444444       3
     2849  2848  2856  2854    1  0.0000000000      0.5439200000       3
     2849  2848  2856  2857    1  0.0000000000      0.5020800000       3
     2849  2848  2856  2858    1  0.0000000000      0.5020800000       3
     2850  2848  2856  2857    1  0.0000000000      0.6508444444       3
     2850  2848  2856  2858    1  0.0000000000      0.6508444444       3
     2846  2848  2850  192     1  0.0000000000      0.6508444444       3
     2849  2848  2850  192     1  0.0000000000      0.6508444444       3
     2856  2848  2850  192     1  0.0000000000      0.6508444444       3
     2843  2859  2860  2839    1  180.0000000000    15.1670000000      2
     2843  2859  2860  2861    1  180.0000000000    15.1670000000      2
     2846  2859  2860  2839    1  180.0000000000    15.1670000000      2
     2846  2859  2860  2861    1  180.0000000000    15.1670000000      2
     2840  2862  2863  2834    1  180.0000000000    15.1670000000      2
     2840  2862  2863  2864    1  180.0000000000    15.1670000000      2
     2897  2862  2863  2834    1  180.0000000000    15.1670000000      2
     2897  2862  2863  2864    1  180.0000000000    15.1670000000      2
     2840  2862  2897  2896    1  180.0000000000    15.1670000000      2
     2840  2862  2897  2898    1  180.0000000000    15.1670000000      2
     2863  2862  2897  2896    1  180.0000000000    15.1670000000      2
     2863  2862  2897  2898    1  180.0000000000    15.1670000000      2
     2839  2840  2841  2842    1  180.0000000000    15.1670000000      2
     2839  2840  2841  2843    1  180.0000000000    15.1670000000      2
     2862  2840  2841  2842    1  180.0000000000    15.1670000000      2
     2862  2840  2841  2843    1  180.0000000000    15.1670000000      2
     2839  2840  2862  2863    1  180.0000000000    4.1840000000       2
     2839  2840  2862  2897    1  180.0000000000    4.1840000000       2
     2841  2840  2862  2863    1  180.0000000000    4.1840000000       2
     2841  2840  2862  2897    1  180.0000000000    4.1840000000       2
     4801  4803  4805  4806    1  0.0000000000      0.5439200000       3
     4801  4803  4805  4807    1  0.0000000000      0.6508444444       3
     4801  4803  4805  4821    1  0.0000000000      2.1756800000       3
     4804  4803  4805  4806    1  0.0000000000      0.5020800000       3
     4804  4803  4805  4807    1  0.0000000000      0.6508444444       3
     4804  4803  4805  4821    1  0.0000000000      0.5439200000       3
     4825  4803  4805  4806    1  0.0000000000      0.5439200000       3
     4825  4803  4805  4807    1  0.0000000000      0.6508444444       3
     4825  4803  4805  4821    1  0.0000000000      2.1756800000       3
     4801  4803  4825  4823    1  0.0000000000      0.6508444444       3
     4801  4803  4825  4826    1  0.0000000000      0.6508444444       3
     4801  4803  4825  4827    1  0.0000000000      0.6508444444       3
     4804  4803  4825  4823    1  0.0000000000      0.5439200000       3
     4804  4803  4825  4826    1  0.0000000000      0.5020800000       3
     4804  4803  4825  4827    1  0.0000000000      0.5020800000       3
     4805  4803  4825  4823    1  0.0000000000      0.6508444444       3
     4805  4803  4825  4826    1  0.0000000000      0.6508444444       3
     4805  4803  4825  4827    1  0.0000000000      0.6508444444       3
     172   173   175   176     1  180.0000000000    15.1670000000      2
     172   173   175   205     1  180.0000000000    15.1670000000      2
     174   173   175   176     1  180.0000000000    15.1670000000      2
     174   173   175   205     1  180.0000000000    15.1670000000      2
     843   853   851   849     1  0.0000000000      2.1756800000       3
     854   853   851   849     1  0.0000000000      0.5439200000       3
     855   853   851   849     1  0.0000000000      2.1756800000       3
     843   853   851   852     1  0.0000000000      0.5439200000       3
     854   853   851   852     1  0.0000000000      0.5020800000       3
     855   853   851   852     1  0.0000000000      0.5439200000       3
     851   853   843   842     1  0.0000000000      0.6508444444       3
     851   853   843   844     1  0.0000000000      0.5439200000       3
     851   853   843   845     1  0.0000000000      2.1756800000       3
     843   853   855   847     1  0.0000000000      0.6508444444       3
     843   853   855   856     1  0.0000000000      0.6508444444       3
     843   853   855   857     1  0.0000000000      0.6508444444       3
     851   853   855   856     1  0.0000000000      0.6508444444       3
     851   853   855   857     1  0.0000000000      0.6508444444       3
     854   853   855   847     1  0.0000000000      0.5439200000       3
     854   853   855   856     1  0.0000000000      0.5020800000       3
     854   853   855   857     1  0.0000000000      0.5020800000       3
     843   853   851   6195    1  0.0000000000      0.6508444444       3
     854   853   851   6195    1  0.0000000000      0.6508444444       3
     855   853   851   6195    1  0.0000000000      0.6508444444       3
     2808  2813  2814  2815    1  180.0000000000    15.1670000000      2
     2806  2815  2816  2817    1  0.0000000000      0.0000000000       2
     2806  2815  2816  2818    1  0.0000000000      0.0000000000       2
     2806  2815  2816  2819    1  0.0000000000      0.0000000000       2
     2814  2815  2816  2817    1  0.0000000000      0.0000000000       2
     2814  2815  2816  2818    1  0.0000000000      0.0000000000       2
     2814  2815  2816  2819    1  0.0000000000      0.0000000000       2
     842   843   845   846     1  0.0000000000      0.6508444444       3
     842   843   845   847     1  0.0000000000      0.6508444444       3
     842   843   845   858     1  0.0000000000      0.6508444444       3
     844   843   845   846     1  0.0000000000      0.6508444444       3
     844   843   845   847     1  0.0000000000      0.6508444444       3
     844   843   845   858     1  0.0000000000      0.6508444444       3
     853   843   845   846     1  0.0000000000      0.6508444444       3
     853   843   845   847     1  0.0000000000      0.6508444444       3
     853   843   845   858     1  0.0000000000      0.6508444444       3
     842   843   853   854     1  0.0000000000      0.6508444444       3
     842   843   853   855     1  0.0000000000      0.6508444444       3
     844   843   853   854     1  0.0000000000      0.5020800000       3
     844   843   853   855     1  0.0000000000      0.5439200000       3
     845   843   853   854     1  0.0000000000      0.5439200000       3
     845   843   853   855     1  0.0000000000      2.1756800000       3
     161   163   153   152     1  0.0000000000      0.6508444444       3
     161   163   153   154     1  0.0000000000      0.5439200000       3
     161   163   153   155     1  0.0000000000      2.1756800000       3
     153   163   161   159     1  0.0000000000      2.1756800000       3
     164   163   161   159     1  0.0000000000      0.5439200000       3
     165   163   161   159     1  0.0000000000      2.1756800000       3
     153   163   161   162     1  0.0000000000      0.5439200000       3
     164   163   161   162     1  0.0000000000      0.5020800000       3
     165   163   161   162     1  0.0000000000      0.5439200000       3
     153   163   165   157     1  0.0000000000      0.6508444444       3
     153   163   165   166     1  0.0000000000      0.6508444444       3
     153   163   165   167     1  0.0000000000      0.6508444444       3
     161   163   165   166     1  0.0000000000      0.6508444444       3
     161   163   165   167     1  0.0000000000      0.6508444444       3
     164   163   165   157     1  0.0000000000      0.5439200000       3
     164   163   165   166     1  0.0000000000      0.5020800000       3
     164   163   165   167     1  0.0000000000      0.5020800000       3
     153   163   161   882     1  0.0000000000      0.6508444444       3
     164   163   161   882     1  0.0000000000      0.6508444444       3
     165   163   161   882     1  0.0000000000      0.6508444444       3
     148   149   150   151     1  180.0000000000    15.1670000000      2
     148   149   150   152     1  180.0000000000    15.1670000000      2
     171   149   150   151     1  180.0000000000    15.1670000000      2
     171   149   150   152     1  180.0000000000    15.1670000000      2
     148   149   171   172     1  180.0000000000    4.1840000000       2
     148   149   171   206     1  180.0000000000    4.1840000000       2
     150   149   171   172     1  180.0000000000    4.1840000000       2
     150   149   171   206     1  180.0000000000    4.1840000000       2
     163   161   159   160     1  0.0000000000      0.6508444444       3
     882   161   159   160     1  0.0000000000      0.6508444444       3
     882   161   159   881     1  0.0000000000      0.6508444444       3
     163   161   159   881     1  0.0000000000      0.6508444444       3
     152   153   155   156     1  0.0000000000      0.6508444444       3
     152   153   155   157     1  0.0000000000      0.6508444444       3
     152   153   155   168     1  0.0000000000      0.6508444444       3
     154   153   155   156     1  0.0000000000      0.6508444444       3
     154   153   155   157     1  0.0000000000      0.6508444444       3
     154   153   155   168     1  0.0000000000      0.6508444444       3
     163   153   155   156     1  0.0000000000      0.6508444444       3
     163   153   155   157     1  0.0000000000      0.6508444444       3
     163   153   155   168     1  0.0000000000      0.6508444444       3
     152   153   163   164     1  0.0000000000      0.6508444444       3
     152   153   163   165     1  0.0000000000      0.6508444444       3
     154   153   163   164     1  0.0000000000      0.5020800000       3
     154   153   163   165     1  0.0000000000      0.5439200000       3
     155   153   163   164     1  0.0000000000      0.5439200000       3
     155   153   163   165     1  0.0000000000      2.1756800000       3
     2813  2814  2815  2806    1  180.0000000000    15.1670000000      2
     2813  2814  2815  2816    1  180.0000000000    15.1670000000      2
     6198  6197  6196  6195    1  0.0000000000      0.0000000000       2
     6199  6197  6196  6195    1  0.0000000000      0.0000000000       2
     6200  6197  6196  6195    1  0.0000000000      0.0000000000       2
     2830  2834  2835  2836    1  0.0000000000      0.5439200000       3
     2830  2834  2835  2837    1  0.0000000000      0.5439200000       3
     2830  2834  2835  2838    1  0.0000000000      0.5439200000       3
     2839  2834  2835  2836    1  0.0000000000      0.6508444444       3
     2839  2834  2835  2837    1  0.0000000000      0.6508444444       3
     2839  2834  2835  2838    1  0.0000000000      0.6508444444       3
     2863  2834  2835  2836    1  0.0000000000      0.6508444444       3
     2863  2834  2835  2837    1  0.0000000000      0.6508444444       3
     2863  2834  2835  2838    1  0.0000000000      0.6508444444       3
     2830  2834  2839  2840    1  0.0000000000      0.0000000000       2
     2830  2834  2839  2860    1  180.0000000000    1.0041600000       2
     2835  2834  2839  2840    1  0.0000000000      0.0000000000       2
     2835  2834  2839  2860    1  180.0000000000    1.0041600000       2
     2863  2834  2839  2840    1  0.0000000000      0.0000000000       2
     2863  2834  2839  2860    1  180.0000000000    0.0000000000       2
     2830  2834  2863  2862    1  0.0000000000      0.0000000000       2
     2830  2834  2863  2864    1  180.0000000000    1.0041600000       2
     2835  2834  2863  2862    1  0.0000000000      0.0000000000       2
     2835  2834  2863  2864    1  180.0000000000    1.0041600000       2
     2839  2834  2863  2862    1  0.0000000000      0.0000000000       2
     2839  2834  2863  2864    1  180.0000000000    0.0000000000       2
     2831  2830  2834  2835    1  0.0000000000      0.5439200000       3
     2831  2830  2834  2839    1  0.0000000000      0.6508444444       3
     2831  2830  2834  2863    1  0.0000000000      0.6508444444       3
     2832  2830  2834  2835    1  0.0000000000      0.5439200000       3
     2832  2830  2834  2839    1  0.0000000000      0.6508444444       3
     2832  2830  2834  2863    1  0.0000000000      0.6508444444       3
     2833  2830  2834  2835    1  0.0000000000      0.5439200000       3
     2833  2830  2834  2839    1  0.0000000000      0.6508444444       3
     2833  2830  2834  2863    1  0.0000000000      0.6508444444       3
     150   152   153   154     1  0.0000000000      0.0000000000       1
     150   152   153   155     1  180.0000000000    1.0041600000       2
     150   152   153   163     1  180.0000000000    1.0041600000       2
     168   152   153   154     1  0.0000000000      0.0000000000       1
     168   152   153   155     1  180.0000000000    1.0041600000       2
     168   152   153   163     1  180.0000000000    1.0041600000       2
     150   152   168   155     1  180.0000000000    15.1670000000      2
     150   152   168   169     1  180.0000000000    15.1670000000      2
     153   152   168   155     1  180.0000000000    15.1670000000      2
     153   152   168   169     1  180.0000000000    15.1670000000      2
     840   842   843   844     1  0.0000000000      0.0000000000       1
     840   842   843   845     1  180.0000000000    1.0041600000       2
     840   842   843   853     1  180.0000000000    1.0041600000       2
     858   842   843   844     1  0.0000000000      0.0000000000       1
     858   842   843   845     1  180.0000000000    1.0041600000       2
     858   842   843   853     1  180.0000000000    1.0041600000       2
     840   842   858   845     1  180.0000000000    15.1670000000      2
     840   842   858   859     1  180.0000000000    15.1670000000      2
     843   842   858   845     1  180.0000000000    15.1670000000      2
     843   842   858   859     1  180.0000000000    15.1670000000      2
     2834  2839  2840  2841    1  180.0000000000    15.1670000000      2
     2834  2839  2840  2862    1  180.0000000000    15.1670000000      2
     2860  2839  2840  2841    1  180.0000000000    15.1670000000      2
     2860  2839  2840  2862    1  180.0000000000    15.1670000000      2
     2834  2839  2860  2859    1  180.0000000000    15.1670000000      2
     2834  2839  2860  2861    1  180.0000000000    15.1670000000      2
     2840  2839  2860  2859    1  180.0000000000    15.1670000000      2
     2840  2839  2860  2861    1  180.0000000000    15.1670000000      2
     839   840   842   843     1  180.0000000000    15.1670000000      2
     839   840   842   858     1  180.0000000000    15.1670000000      2
     841   840   842   843     1  180.0000000000    15.1670000000      2
     841   840   842   858     1  180.0000000000    15.1670000000      2
     149   150   152   153     1  180.0000000000    15.1670000000      2
     149   150   152   168     1  180.0000000000    15.1670000000      2
     151   150   152   153     1  180.0000000000    15.1670000000      2
     151   150   152   168     1  180.0000000000    15.1670000000      2
     6195  6196  6187  6185    1  180.0000000000    15.1670000000      2
     6197  6196  6195  6194    1  180.0000000000    15.1670000000      2
     6187  6196  6197  6198    1  0.0000000000      0.0000000000       2
     6187  6196  6197  6199    1  0.0000000000      0.0000000000       2
     6187  6196  6197  6200    1  0.0000000000      0.0000000000       2
     6187  6196  6195  851     1  180.0000000000    15.1670000000      2
     6197  6196  6195  851     1  180.0000000000    15.1670000000      2
     2834  2863  2864  2865    1  180.0000000000    15.1670000000      2
     2834  2863  2864  2866    1  180.0000000000    15.1670000000      2
     2862  2863  2864  2865    1  180.0000000000    15.1670000000      2
     2862  2863  2864  2866    1  180.0000000000    15.1670000000      2
     6194  6195  6196  6187    1  180.0000000000    15.1670000000      2
     6196  6195  6194  849     1  180.0000000000    15.1670000000      2
     6194  6195  851   852     1  0.0000000000      0.0000000000       1
     6196  6195  851   852     1  0.0000000000      0.0000000000       1
     6194  6195  851   853     1  180.0000000000    1.0041600000       2
     6196  6195  851   853     1  180.0000000000    1.0041600000       2
     6194  6195  851   849     1  180.0000000000    1.0041600000       2
     6196  6195  851   849     1  180.0000000000    1.0041600000       2
     4909  4910  4911  4912    1  180.0000000000    15.1670000000      2
     4909  4910  4911  4913    1  180.0000000000    15.1670000000      2
     4932  4910  4911  4912    1  180.0000000000    15.1670000000      2
     4932  4910  4911  4913    1  180.0000000000    15.1670000000      2
     4909  4910  4932  4933    1  180.0000000000    4.1840000000       2
     4909  4910  4932  4967    1  180.0000000000    4.1840000000       2
     4911  4910  4932  4933    1  180.0000000000    4.1840000000       2
     4911  4910  4932  4967    1  180.0000000000    4.1840000000       2
     4910  4911  4913  4914    1  180.0000000000    15.1670000000      2
     4910  4911  4913  4929    1  180.0000000000    15.1670000000      2
     4912  4911  4913  4914    1  180.0000000000    15.1670000000      2
     4912  4911  4913  4929    1  180.0000000000    15.1670000000      2
     4904  4909  4910  4911    1  180.0000000000    15.1670000000      2
     4904  4909  4910  4932    1  180.0000000000    15.1670000000      2
     4930  4909  4910  4911    1  180.0000000000    15.1670000000      2
     4930  4909  4910  4932    1  180.0000000000    15.1670000000      2
     4904  4909  4930  4929    1  180.0000000000    15.1670000000      2
     4904  4909  4930  4931    1  180.0000000000    15.1670000000      2
     4910  4909  4930  4929    1  180.0000000000    15.1670000000      2
     4910  4909  4930  4931    1  180.0000000000    15.1670000000      2
     4924  4926  4918  4920    1  0.0000000000      0.6508444444       3
     4918  4926  4924  4922    1  0.0000000000      0.6508444444       3
     4910  4932  4933  4904    1  180.0000000000    15.1670000000      2
     4910  4932  4933  4934    1  180.0000000000    15.1670000000      2
     4967  4932  4933  4904    1  180.0000000000    15.1670000000      2
     4967  4932  4933  4934    1  180.0000000000    15.1670000000      2
     4910  4932  4967  4966    1  180.0000000000    15.1670000000      2
     4910  4932  4967  4968    1  180.0000000000    15.1670000000      2
     4933  4932  4967  4966    1  180.0000000000    15.1670000000      2
     4933  4932  4967  4968    1  180.0000000000    15.1670000000      2
     4900  4904  4905  4906    1  0.0000000000      0.5439200000       3
     4900  4904  4905  4907    1  0.0000000000      0.5439200000       3
     4900  4904  4905  4908    1  0.0000000000      0.5439200000       3
     4909  4904  4905  4906    1  0.0000000000      0.6508444444       3
     4909  4904  4905  4907    1  0.0000000000      0.6508444444       3
     4909  4904  4905  4908    1  0.0000000000      0.6508444444       3
     4933  4904  4905  4906    1  0.0000000000      0.6508444444       3
     4933  4904  4905  4907    1  0.0000000000      0.6508444444       3
     4933  4904  4905  4908    1  0.0000000000      0.6508444444       3
     4900  4904  4909  4910    1  0.0000000000      0.0000000000       2
     4900  4904  4909  4930    1  180.0000000000    1.0041600000       2
     4905  4904  4909  4910    1  0.0000000000      0.0000000000       2
     4905  4904  4909  4930    1  180.0000000000    1.0041600000       2
     4933  4904  4909  4910    1  0.0000000000      0.0000000000       2
     4933  4904  4909  4930    1  180.0000000000    0.0000000000       2
     4900  4904  4933  4932    1  0.0000000000      0.0000000000       2
     4900  4904  4933  4934    1  180.0000000000    1.0041600000       2
     4905  4904  4933  4932    1  0.0000000000      0.0000000000       2
     4905  4904  4933  4934    1  180.0000000000    1.0041600000       2
     4909  4904  4933  4932    1  0.0000000000      0.0000000000       2
     4909  4904  4933  4934    1  180.0000000000    0.0000000000       2
     4904  4933  4934  4935    1  180.0000000000    15.1670000000      2
     4904  4933  4934  4936    1  180.0000000000    15.1670000000      2
     4932  4933  4934  4935    1  180.0000000000    15.1670000000      2
     4932  4933  4934  4936    1  180.0000000000    15.1670000000      2
     4911  4913  4914  4915    1  0.0000000000      0.0000000000       1
     4911  4913  4914  4916    1  180.0000000000    1.0041600000       2
     4911  4913  4914  4924    1  180.0000000000    1.0041600000       2
     4929  4913  4914  4915    1  0.0000000000      0.0000000000       1
     4929  4913  4914  4916    1  180.0000000000    1.0041600000       2
     4929  4913  4914  4924    1  180.0000000000    1.0041600000       2
     4911  4913  4929  4916    1  180.0000000000    15.1670000000      2
     4911  4913  4929  4930    1  180.0000000000    15.1670000000      2
     4914  4913  4929  4916    1  180.0000000000    15.1670000000      2
     4914  4913  4929  4930    1  180.0000000000    15.1670000000      2
     4913  4929  4930  4909    1  180.0000000000    15.1670000000      2
     4913  4929  4930  4931    1  180.0000000000    15.1670000000      2
     4916  4929  4930  4909    1  180.0000000000    15.1670000000      2
     4916  4929  4930  4931    1  180.0000000000    15.1670000000      2
     4920  4918  4916  4914    1  0.0000000000      2.1756800000       3
     4920  4918  4916  4917    1  0.0000000000      0.5439200000       3
     4920  4918  4916  4929    1  0.0000000000      0.6508444444       3
     4916  4918  4920  4921    1  0.0000000000      0.5439200000       3
     4916  4918  4920  4922    1  0.0000000000      2.1756800000       3
     4919  4918  4920  4921    1  0.0000000000      0.5020800000       3
     4919  4918  4920  4922    1  0.0000000000      0.5439200000       3
     4926  4918  4920  4921    1  0.0000000000      0.5439200000       3
     4926  4918  4920  4922    1  0.0000000000      2.1756800000       3
     4916  4918  4926  4924    1  0.0000000000      0.6508444444       3
     4916  4918  4926  4927    1  0.0000000000      0.6508444444       3
     4916  4918  4926  4928    1  0.0000000000      0.6508444444       3
     4919  4918  4926  4924    1  0.0000000000      0.5439200000       3
     4919  4918  4926  4927    1  0.0000000000      0.5020800000       3
     4919  4918  4926  4928    1  0.0000000000      0.5020800000       3
     4920  4918  4926  4927    1  0.0000000000      0.6508444444       3
     4920  4918  4926  4928    1  0.0000000000      0.6508444444       3
     4916  4918  4920  1640    1  0.0000000000      0.6508444444       3
     4919  4918  4920  1640    1  0.0000000000      0.6508444444       3
     4926  4918  4920  1640    1  0.0000000000      0.6508444444       3
     4922  4924  4914  4913    1  0.0000000000      0.6508444444       3
     4922  4924  4914  4915    1  0.0000000000      0.5439200000       3
     4922  4924  4914  4916    1  0.0000000000      2.1756800000       3
     4914  4924  4922  4920    1  0.0000000000      2.1756800000       3
     4925  4924  4922  4920    1  0.0000000000      0.5439200000       3
     4926  4924  4922  4920    1  0.0000000000      2.1756800000       3
     4914  4924  4922  4923    1  0.0000000000      0.5439200000       3
     4925  4924  4922  4923    1  0.0000000000      0.5020800000       3
     4926  4924  4922  4923    1  0.0000000000      0.5439200000       3
     4914  4924  4926  4918    1  0.0000000000      0.6508444444       3
     4914  4924  4926  4927    1  0.0000000000      0.6508444444       3
     4914  4924  4926  4928    1  0.0000000000      0.6508444444       3
     4922  4924  4926  4927    1  0.0000000000      0.6508444444       3
     4922  4924  4926  4928    1  0.0000000000      0.6508444444       3
     4925  4924  4926  4918    1  0.0000000000      0.5439200000       3
     4925  4924  4926  4927    1  0.0000000000      0.5020800000       3
     4925  4924  4926  4928    1  0.0000000000      0.5020800000       3
     4914  4924  4922  1641    1  0.0000000000      0.6508444444       3
     4925  4924  4922  1641    1  0.0000000000      0.6508444444       3
     4926  4924  4922  1641    1  0.0000000000      0.6508444444       3
     4914  4916  4918  4919    1  0.0000000000      0.5439200000       3
     4914  4916  4918  4926    1  0.0000000000      2.1756800000       3
     4917  4916  4918  4919    1  0.0000000000      0.5020800000       3
     4917  4916  4918  4926    1  0.0000000000      0.5439200000       3
     4929  4916  4918  4919    1  0.0000000000      0.6508444444       3
     4929  4916  4918  4926    1  0.0000000000      0.6508444444       3
     4914  4916  4929  4913    1  180.0000000000    1.0041600000       2
     4914  4916  4929  4930    1  180.0000000000    1.0041600000       2
     4917  4916  4929  4913    1  0.0000000000      0.0000000000       1
     4917  4916  4929  4930    1  0.0000000000      0.0000000000       1
     4918  4916  4929  4913    1  180.0000000000    1.0041600000       2
     4918  4916  4929  4930    1  180.0000000000    1.0041600000       2
     4913  4914  4916  4917    1  0.0000000000      0.6508444444       3
     4913  4914  4916  4918    1  0.0000000000      0.6508444444       3
     4913  4914  4916  4929    1  0.0000000000      0.6508444444       3
     4915  4914  4916  4917    1  0.0000000000      0.6508444444       3
     4915  4914  4916  4918    1  0.0000000000      0.6508444444       3
     4915  4914  4916  4929    1  0.0000000000      0.6508444444       3
     4924  4914  4916  4917    1  0.0000000000      0.6508444444       3
     4924  4914  4916  4918    1  0.0000000000      0.6508444444       3
     4924  4914  4916  4929    1  0.0000000000      0.6508444444       3
     4913  4914  4924  4925    1  0.0000000000      0.6508444444       3
     4913  4914  4924  4926    1  0.0000000000      0.6508444444       3
     4915  4914  4924  4925    1  0.0000000000      0.5020800000       3
     4915  4914  4924  4926    1  0.0000000000      0.5439200000       3
     4916  4914  4924  4925    1  0.0000000000      0.5439200000       3
     4916  4914  4924  4926    1  0.0000000000      2.1756800000       3
     2869  2871  2873  2874    1  0.0000000000      0.5439200000       3
     2869  2871  2873  2875    1  0.0000000000      0.6508444444       3
     2869  2871  2873  2889    1  0.0000000000      2.1756800000       3
     2872  2871  2873  2874    1  0.0000000000      0.5020800000       3
     2872  2871  2873  2875    1  0.0000000000      0.6508444444       3
     2872  2871  2873  2889    1  0.0000000000      0.5439200000       3
     2893  2871  2873  2874    1  0.0000000000      0.5439200000       3
     2893  2871  2873  2875    1  0.0000000000      0.6508444444       3
     2893  2871  2873  2889    1  0.0000000000      2.1756800000       3
     2869  2871  2893  2891    1  0.0000000000      0.6508444444       3
     2869  2871  2893  2894    1  0.0000000000      0.6508444444       3
     2869  2871  2893  2895    1  0.0000000000      0.6508444444       3
     2872  2871  2893  2891    1  0.0000000000      0.5439200000       3
     2872  2871  2893  2894    1  0.0000000000      0.5020800000       3
     2872  2871  2893  2895    1  0.0000000000      0.5020800000       3
     2873  2871  2893  2891    1  0.0000000000      0.6508444444       3
     2873  2871  2893  2894    1  0.0000000000      0.6508444444       3
     2873  2871  2893  2895    1  0.0000000000      0.6508444444       3
     4936  4966  4967  4932    1  180.0000000000    15.1670000000      2
     4936  4966  4967  4968    1  180.0000000000    15.1670000000      2
     4939  4966  4967  4932    1  180.0000000000    15.1670000000      2
     4939  4966  4967  4968    1  180.0000000000    15.1670000000      2
     4918  4920  4922  4923    1  0.0000000000      0.6508444444       3
     4918  4920  4922  4924    1  0.0000000000      0.6508444444       3
     4921  4920  4922  4923    1  0.0000000000      0.6508444444       3
     4918  4920  4922  1641    1  0.0000000000      0.6508444444       3
     1640  4920  4922  4923    1  0.0000000000      0.6508444444       3
     6179  6203  6205  6183    1  0.0000000000      0.6508444444       3
     6179  6203  6205  6206    1  0.0000000000      0.6508444444       3
     6179  6203  6205  6207    1  0.0000000000      0.6508444444       3
     6201  6203  6205  6183    1  0.0000000000      0.6508444444       3
     6201  6203  6205  6206    1  0.0000000000      0.6508444444       3
     6201  6203  6205  6207    1  0.0000000000      0.6508444444       3
     6204  6203  6205  6183    1  0.0000000000      0.5439200000       3
     6204  6203  6205  6206    1  0.0000000000      0.5020800000       3
     6204  6203  6205  6207    1  0.0000000000      0.5020800000       3
     6176  6178  6179  6180    1  0.0000000000      0.0000000000       1
     6176  6178  6179  6181    1  180.0000000000    1.0041600000       2
     6176  6178  6179  6203    1  180.0000000000    1.0041600000       2
     6208  6178  6179  6180    1  0.0000000000      0.0000000000       1
     6208  6178  6179  6181    1  180.0000000000    1.0041600000       2
     6208  6178  6179  6203    1  180.0000000000    1.0041600000       2
     6176  6178  6208  6181    1  180.0000000000    15.1670000000      2
     6176  6178  6208  6209    1  180.0000000000    15.1670000000      2
     6179  6178  6208  6181    1  180.0000000000    15.1670000000      2
     6179  6178  6208  6209    1  180.0000000000    15.1670000000      2
     6187  6188  6189  6190    1  180.0000000000    15.1670000000      2
     6187  6188  6189  6194    1  180.0000000000    15.1670000000      2
     6201  6188  6189  6190    1  180.0000000000    15.1670000000      2
     6187  6188  6201  6185    1  180.0000000000    1.0041600000       2
     6187  6188  6201  6202    1  0.0000000000      0.0000000000       1
     6187  6188  6201  6203    1  180.0000000000    1.0041600000       2
     6189  6188  6201  6185    1  180.0000000000    1.0041600000       2
     6189  6188  6201  6202    1  0.0000000000      0.0000000000       1
     6189  6188  6201  6203    1  180.0000000000    1.0041600000       2
     6178  6179  6181  6182    1  0.0000000000      0.6508444444       3
     6178  6179  6181  6183    1  0.0000000000      0.6508444444       3
     6178  6179  6181  6208    1  0.0000000000      0.6508444444       3
     6180  6179  6181  6182    1  0.0000000000      0.6508444444       3
     6180  6179  6181  6183    1  0.0000000000      0.6508444444       3
     6180  6179  6181  6208    1  0.0000000000      0.6508444444       3
     6203  6179  6181  6182    1  0.0000000000      0.6508444444       3
     6203  6179  6181  6183    1  0.0000000000      0.6508444444       3
     6203  6179  6181  6208    1  0.0000000000      0.6508444444       3
     6178  6179  6203  6201    1  0.0000000000      0.6508444444       3
     6178  6179  6203  6204    1  0.0000000000      0.6508444444       3
     6178  6179  6203  6205    1  0.0000000000      0.6508444444       3
     6180  6179  6203  6201    1  0.0000000000      0.5439200000       3
     6180  6179  6203  6204    1  0.0000000000      0.5020800000       3
     6180  6179  6203  6205    1  0.0000000000      0.5439200000       3
     6181  6179  6203  6201    1  0.0000000000      2.1756800000       3
     6181  6179  6203  6204    1  0.0000000000      0.5439200000       3
     6181  6179  6203  6205    1  0.0000000000      2.1756800000       3
     6185  6201  6203  6179    1  0.0000000000      2.1756800000       3
     6185  6201  6203  6204    1  0.0000000000      0.5439200000       3
     6185  6201  6203  6205    1  0.0000000000      2.1756800000       3
     6188  6201  6203  6179    1  0.0000000000      0.6508444444       3
     6188  6201  6203  6204    1  0.0000000000      0.6508444444       3
     6188  6201  6203  6205    1  0.0000000000      0.6508444444       3
     6202  6201  6203  6179    1  0.0000000000      0.5439200000       3
     6202  6201  6203  6204    1  0.0000000000      0.5020800000       3
     6202  6201  6203  6205    1  0.0000000000      0.5439200000       3
     2867  2869  2871  2872    1  0.0000000000      0.5439200000       3
     2867  2869  2871  2873    1  0.0000000000      2.1756800000       3
     2867  2869  2871  2893    1  0.0000000000      2.1756800000       3
     2870  2869  2871  2872    1  0.0000000000      0.5020800000       3
     2870  2869  2871  2873    1  0.0000000000      0.5439200000       3
     2870  2869  2871  2893    1  0.0000000000      0.5439200000       3
     2896  2869  2871  2872    1  0.0000000000      0.6508444444       3
     2896  2869  2871  2873    1  0.0000000000      0.6508444444       3
     2896  2869  2871  2893    1  0.0000000000      0.6508444444       3
     2867  2869  2896  2866    1  180.0000000000    1.0041600000       2
     2867  2869  2896  2897    1  180.0000000000    1.0041600000       2
     2870  2869  2896  2866    1  0.0000000000      0.0000000000       1
     2870  2869  2896  2897    1  0.0000000000      0.0000000000       1
     2871  2869  2896  2866    1  180.0000000000    1.0041600000       2
     2871  2869  2896  2897    1  180.0000000000    1.0041600000       2
     6191  6190  6189  6194    1  0.0000000000      0.0000000000       2
     6192  6190  6189  6194    1  0.0000000000      0.0000000000       2
     6193  6190  6189  6194    1  0.0000000000      0.0000000000       2
     2866  2896  2897  2862    1  180.0000000000    15.1670000000      2
     2866  2896  2897  2898    1  180.0000000000    15.1670000000      2
     2869  2896  2897  2862    1  180.0000000000    15.1670000000      2
     2869  2896  2897  2898    1  180.0000000000    15.1670000000      2
     4901  4900  4904  4905    1  0.0000000000      0.5439200000       3
     4901  4900  4904  4909    1  0.0000000000      0.6508444444       3
     4901  4900  4904  4933    1  0.0000000000      0.6508444444       3
     4902  4900  4904  4905    1  0.0000000000      0.5439200000       3
     4902  4900  4904  4909    1  0.0000000000      0.6508444444       3
     4902  4900  4904  4933    1  0.0000000000      0.6508444444       3
     4903  4900  4904  4905    1  0.0000000000      0.5439200000       3
     4903  4900  4904  4909    1  0.0000000000      0.6508444444       3
     4903  4900  4904  4933    1  0.0000000000      0.6508444444       3
     4933  4934  4936  4937    1  180.0000000000    15.1670000000      2
     4933  4934  4936  4966    1  180.0000000000    15.1670000000      2
     4935  4934  4936  4937    1  180.0000000000    15.1670000000      2
     4935  4934  4936  4966    1  180.0000000000    15.1670000000      2
     4934  4936  4937  4938    1  0.0000000000      0.0000000000       1
     4934  4936  4937  4939    1  180.0000000000    1.0041600000       2
     4934  4936  4937  4961    1  180.0000000000    1.0041600000       2
     4966  4936  4937  4938    1  0.0000000000      0.0000000000       1
     4966  4936  4937  4939    1  180.0000000000    1.0041600000       2
     4966  4936  4937  4961    1  180.0000000000    1.0041600000       2
     4934  4936  4966  4939    1  180.0000000000    15.1670000000      2
     4934  4936  4966  4967    1  180.0000000000    15.1670000000      2
     4937  4936  4966  4939    1  180.0000000000    15.1670000000      2
     4937  4936  4966  4967    1  180.0000000000    15.1670000000      2
     4937  4939  4941  4942    1  0.0000000000      0.5439200000       3
     4937  4939  4941  4943    1  0.0000000000      2.1756800000       3
     4937  4939  4941  4963    1  0.0000000000      2.1756800000       3
     4940  4939  4941  4942    1  0.0000000000      0.5020800000       3
     4940  4939  4941  4943    1  0.0000000000      0.5439200000       3
     4940  4939  4941  4963    1  0.0000000000      0.5439200000       3
     4966  4939  4941  4942    1  0.0000000000      0.6508444444       3
     4966  4939  4941  4943    1  0.0000000000      0.6508444444       3
     4966  4939  4941  4963    1  0.0000000000      0.6508444444       3
     4937  4939  4966  4936    1  180.0000000000    1.0041600000       2
     4937  4939  4966  4967    1  180.0000000000    1.0041600000       2
     4940  4939  4966  4936    1  0.0000000000      0.0000000000       1
     4940  4939  4966  4967    1  0.0000000000      0.0000000000       1
     4941  4939  4966  4936    1  180.0000000000    1.0041600000       2
     4941  4939  4966  4967    1  180.0000000000    1.0041600000       2
     2867  2891  2893  2871    1  0.0000000000      0.6508444444       3
     2867  2891  2893  2894    1  0.0000000000      0.6508444444       3
     2867  2891  2893  2895    1  0.0000000000      0.6508444444       3
     2889  2891  2893  2871    1  0.0000000000      0.6508444444       3
     2889  2891  2893  2894    1  0.0000000000      0.6508444444       3
     2889  2891  2893  2895    1  0.0000000000      0.6508444444       3
     2892  2891  2893  2871    1  0.0000000000      0.5439200000       3
     2892  2891  2893  2894    1  0.0000000000      0.5020800000       3
     2892  2891  2893  2895    1  0.0000000000      0.5020800000       3
     2246  2270  2272  2250    1  0.0000000000      0.6508444444       3
     2246  2270  2272  2273    1  0.0000000000      0.6508444444       3
     2246  2270  2272  2274    1  0.0000000000      0.6508444444       3
     2268  2270  2272  2250    1  0.0000000000      0.6508444444       3
     2268  2270  2272  2273    1  0.0000000000      0.6508444444       3
     2268  2270  2272  2274    1  0.0000000000      0.6508444444       3
     2271  2270  2272  2250    1  0.0000000000      0.5439200000       3
     2271  2270  2272  2273    1  0.0000000000      0.5020800000       3
     2271  2270  2272  2274    1  0.0000000000      0.5020800000       3
     6500  6501  6503  6504    1  0.0000000000      0.6508444444       3
     6500  6501  6503  6505    1  0.0000000000      0.6508444444       3
     6500  6501  6503  6516    1  0.0000000000      0.6508444444       3
     6502  6501  6503  6504    1  0.0000000000      0.6508444444       3
     6502  6501  6503  6505    1  0.0000000000      0.6508444444       3
     6502  6501  6503  6516    1  0.0000000000      0.6508444444       3
     6511  6501  6503  6504    1  0.0000000000      0.6508444444       3
     6511  6501  6503  6505    1  0.0000000000      0.6508444444       3
     6511  6501  6503  6516    1  0.0000000000      0.6508444444       3
     6500  6501  6511  6512    1  0.0000000000      0.6508444444       3
     6500  6501  6511  6513    1  0.0000000000      0.6508444444       3
     6502  6501  6511  6512    1  0.0000000000      0.5020800000       3
     6502  6501  6511  6513    1  0.0000000000      0.5439200000       3
     6503  6501  6511  6512    1  0.0000000000      0.5439200000       3
     6503  6501  6511  6513    1  0.0000000000      2.1756800000       3
     2866  2867  2869  2870    1  0.0000000000      0.6508444444       3
     2866  2867  2869  2871    1  0.0000000000      0.6508444444       3
     2866  2867  2869  2896    1  0.0000000000      0.6508444444       3
     2868  2867  2869  2870    1  0.0000000000      0.6508444444       3
     2868  2867  2869  2871    1  0.0000000000      0.6508444444       3
     2868  2867  2869  2896    1  0.0000000000      0.6508444444       3
     2891  2867  2869  2870    1  0.0000000000      0.6508444444       3
     2891  2867  2869  2871    1  0.0000000000      0.6508444444       3
     2891  2867  2869  2896    1  0.0000000000      0.6508444444       3
     2866  2867  2891  2889    1  0.0000000000      0.6508444444       3
     2866  2867  2891  2892    1  0.0000000000      0.6508444444       3
     2866  2867  2891  2893    1  0.0000000000      0.6508444444       3
     2868  2867  2891  2889    1  0.0000000000      0.5439200000       3
     2868  2867  2891  2892    1  0.0000000000      0.5020800000       3
     2868  2867  2891  2893    1  0.0000000000      0.5439200000       3
     2869  2867  2891  2889    1  0.0000000000      2.1756800000       3
     2869  2867  2891  2892    1  0.0000000000      0.5439200000       3
     2869  2867  2891  2893    1  0.0000000000      2.1756800000       3
     853   851   849   850     1  0.0000000000      0.6508444444       3
     853   851   849   6194    1  0.0000000000      0.6508444444       3
     6195  851   849   850     1  0.0000000000      0.6508444444       3
     6509  6511  6501  6500    1  0.0000000000      0.6508444444       3
     6509  6511  6501  6502    1  0.0000000000      0.5439200000       3
     6509  6511  6501  6503    1  0.0000000000      2.1756800000       3
     6501  6511  6509  6507    1  0.0000000000      2.1756800000       3
     6512  6511  6509  6507    1  0.0000000000      0.5439200000       3
     6513  6511  6509  6507    1  0.0000000000      2.1756800000       3
     6501  6511  6509  6510    1  0.0000000000      0.5439200000       3
     6512  6511  6509  6510    1  0.0000000000      0.5020800000       3
     6513  6511  6509  6510    1  0.0000000000      0.5439200000       3
     6501  6511  6513  6505    1  0.0000000000      0.6508444444       3
     6501  6511  6513  6514    1  0.0000000000      0.6508444444       3
     6501  6511  6513  6515    1  0.0000000000      0.6508444444       3
     6509  6511  6513  6514    1  0.0000000000      0.6508444444       3
     6509  6511  6513  6515    1  0.0000000000      0.6508444444       3
     6512  6511  6513  6505    1  0.0000000000      0.5439200000       3
     6512  6511  6513  6514    1  0.0000000000      0.5020800000       3
     6512  6511  6513  6515    1  0.0000000000      0.5020800000       3
     6501  6511  6509  2262    1  0.0000000000      0.6508444444       3
     6512  6511  6509  2262    1  0.0000000000      0.6508444444       3
     6513  6511  6509  2262    1  0.0000000000      0.6508444444       3
     849   847   845   843     1  0.0000000000      2.1756800000       3
     849   847   845   846     1  0.0000000000      0.5439200000       3
     849   847   845   858     1  0.0000000000      0.6508444444       3
     845   847   849   850     1  0.0000000000      0.5439200000       3
     845   847   849   851     1  0.0000000000      2.1756800000       3
     848   847   849   850     1  0.0000000000      0.5020800000       3
     848   847   849   851     1  0.0000000000      0.5439200000       3
     855   847   849   850     1  0.0000000000      0.5439200000       3
     855   847   849   851     1  0.0000000000      2.1756800000       3
     845   847   855   853     1  0.0000000000      0.6508444444       3
     845   847   855   856     1  0.0000000000      0.6508444444       3
     845   847   855   857     1  0.0000000000      0.6508444444       3
     848   847   855   853     1  0.0000000000      0.5439200000       3
     848   847   855   856     1  0.0000000000      0.5020800000       3
     848   847   855   857     1  0.0000000000      0.5020800000       3
     849   847   855   856     1  0.0000000000      0.6508444444       3
     849   847   855   857     1  0.0000000000      0.6508444444       3
     845   847   849   6194    1  0.0000000000      0.6508444444       3
     848   847   849   6194    1  0.0000000000      0.6508444444       3
     855   847   849   6194    1  0.0000000000      0.6508444444       3
     847   855   853   851     1  0.0000000000      0.6508444444       3
     853   855   847   849     1  0.0000000000      0.6508444444       3
     4936  4937  4939  4940    1  0.0000000000      0.6508444444       3
     4936  4937  4939  4941    1  0.0000000000      0.6508444444       3
     4936  4937  4939  4966    1  0.0000000000      0.6508444444       3
     4938  4937  4939  4940    1  0.0000000000      0.6508444444       3
     4938  4937  4939  4941    1  0.0000000000      0.6508444444       3
     4938  4937  4939  4966    1  0.0000000000      0.6508444444       3
     4961  4937  4939  4940    1  0.0000000000      0.6508444444       3
     4961  4937  4939  4941    1  0.0000000000      0.6508444444       3
     4961  4937  4939  4966    1  0.0000000000      0.6508444444       3
     4936  4937  4961  4959    1  0.0000000000      0.6508444444       3
     4936  4937  4961  4962    1  0.0000000000      0.6508444444       3
     4936  4937  4961  4963    1  0.0000000000      0.6508444444       3
     4938  4937  4961  4959    1  0.0000000000      0.5439200000       3
     4938  4937  4961  4962    1  0.0000000000      0.5020800000       3
     4938  4937  4961  4963    1  0.0000000000      0.5439200000       3
     4939  4937  4961  4959    1  0.0000000000      2.1756800000       3
     4939  4937  4961  4962    1  0.0000000000      0.5439200000       3
     4939  4937  4961  4963    1  0.0000000000      2.1756800000       3
     2864  2866  2867  2868    1  0.0000000000      0.0000000000       1
     2864  2866  2867  2869    1  180.0000000000    1.0041600000       2
     2864  2866  2867  2891    1  180.0000000000    1.0041600000       2
     2896  2866  2867  2868    1  0.0000000000      0.0000000000       1
     2896  2866  2867  2869    1  180.0000000000    1.0041600000       2
     2896  2866  2867  2891    1  180.0000000000    1.0041600000       2
     2864  2866  2896  2869    1  180.0000000000    15.1670000000      2
     2864  2866  2896  2897    1  180.0000000000    15.1670000000      2
     2867  2866  2896  2869    1  180.0000000000    15.1670000000      2
     2867  2866  2896  2897    1  180.0000000000    15.1670000000      2
     6505  6507  6509  6510    1  0.0000000000      0.6508444444       3
     6505  6507  6509  6511    1  0.0000000000      0.6508444444       3
     6508  6507  6509  6510    1  0.0000000000      0.6508444444       3
     2261  6507  6509  6510    1  0.0000000000      0.6508444444       3
     2261  6507  6509  2262    1  0.0000000000      0.6508444444       3
     6505  6507  6509  2262    1  0.0000000000      0.6508444444       3
     6189  6194  6195  6196    1  180.0000000000    15.1670000000      2
     849   6194  6195  851     1  180.0000000000    15.1670000000      2
     6189  6194  849   850     1  0.0000000000      0.0000000000       1
     6195  6194  849   850     1  0.0000000000      0.0000000000       1
     6189  6194  849   851     1  180.0000000000    1.0041600000       2
     6195  6194  849   851     1  180.0000000000    1.0041600000       2
     6189  6194  849   847     1  180.0000000000    1.0041600000       2
     6195  6194  849   847     1  180.0000000000    1.0041600000       2
     6189  6194  6195  851     1  180.0000000000    15.1670000000      2
     847   849   851   852     1  0.0000000000      0.6508444444       3
     847   849   851   853     1  0.0000000000      0.6508444444       3
     850   849   851   852     1  0.0000000000      0.6508444444       3
     6194  849   851   852     1  0.0000000000      0.6508444444       3
     6194  849   851   6195    1  0.0000000000      0.6508444444       3
     847   849   851   6195    1  0.0000000000      0.6508444444       3
     6511  6513  6505  6507    1  0.0000000000      0.6508444444       3
     6505  6513  6511  6509    1  0.0000000000      0.6508444444       3
     2248  2250  2252  2253    1  0.0000000000      0.5439200000       3
     2248  2250  2252  2254    1  0.0000000000      0.6508444444       3
     2248  2250  2252  2268    1  0.0000000000      2.1756800000       3
     2251  2250  2252  2253    1  0.0000000000      0.5020800000       3
     2251  2250  2252  2254    1  0.0000000000      0.6508444444       3
     2251  2250  2252  2268    1  0.0000000000      0.5439200000       3
     2272  2250  2252  2253    1  0.0000000000      0.5439200000       3
     2272  2250  2252  2254    1  0.0000000000      0.6508444444       3
     2272  2250  2252  2268    1  0.0000000000      2.1756800000       3
     2248  2250  2272  2270    1  0.0000000000      0.6508444444       3
     2248  2250  2272  2273    1  0.0000000000      0.6508444444       3
     2248  2250  2272  2274    1  0.0000000000      0.6508444444       3
     2251  2250  2272  2270    1  0.0000000000      0.5439200000       3
     2251  2250  2272  2273    1  0.0000000000      0.5020800000       3
     2251  2250  2272  2274    1  0.0000000000      0.5020800000       3
     2252  2250  2272  2270    1  0.0000000000      0.6508444444       3
     2252  2250  2272  2273    1  0.0000000000      0.6508444444       3
     2252  2250  2272  2274    1  0.0000000000      0.6508444444       3
     2250  2252  2254  2255    1  180.0000000000    1.0041600000       2
     2250  2252  2254  2263    1  180.0000000000    1.0041600000       2
     2253  2252  2254  2255    1  0.0000000000      0.0000000000       1
     2253  2252  2254  2263    1  0.0000000000      0.0000000000       1
     2268  2252  2254  2255    1  180.0000000000    1.0041600000       2
     2268  2252  2254  2263    1  180.0000000000    1.0041600000       2
     2250  2252  2268  2255    1  0.0000000000      0.6508444444       3
     2250  2252  2268  2269    1  0.0000000000      0.6508444444       3
     2250  2252  2268  2270    1  0.0000000000      0.6508444444       3
     2253  2252  2268  2255    1  0.0000000000      0.6508444444       3
     2253  2252  2268  2269    1  0.0000000000      0.6508444444       3
     2253  2252  2268  2270    1  0.0000000000      0.6508444444       3
     2254  2252  2268  2255    1  0.0000000000      0.6508444444       3
     2254  2252  2268  2269    1  0.0000000000      0.6508444444       3
     2254  2252  2268  2270    1  0.0000000000      0.6508444444       3
     2863  2864  2866  2867    1  180.0000000000    15.1670000000      2
     2863  2864  2866  2896    1  180.0000000000    15.1670000000      2
     2865  2864  2866  2867    1  180.0000000000    15.1670000000      2
     2865  2864  2866  2896    1  180.0000000000    15.1670000000      2
     2252  2254  2255  2256    1  180.0000000000    15.1670000000      2
     2252  2254  2255  2268    1  180.0000000000    15.1670000000      2
     2263  2254  2255  2256    1  180.0000000000    15.1670000000      2
     2263  2254  2255  2268    1  180.0000000000    15.1670000000      2
     2252  2254  2263  2264    1  180.0000000000    15.1670000000      2
     2255  2254  2263  2262    1  180.0000000000    15.1670000000      2
     2255  2254  2263  2264    1  180.0000000000    15.1670000000      2
     2255  2256  2257  2258    1  0.0000000000      0.0000000000       2
     2255  2256  2257  2259    1  0.0000000000      0.0000000000       2
     2255  2256  2257  2260    1  0.0000000000      0.0000000000       2
     2255  2256  2261  2262    1  180.0000000000    15.1670000000      2
     2257  2256  2261  2262    1  180.0000000000    15.1670000000      2
     2261  2256  2255  2268    1  180.0000000000    15.1670000000      2
     2257  2256  2261  6507    1  180.0000000000    15.1670000000      2
     2255  2256  2261  6507    1  180.0000000000    15.1670000000      2
     2252  2268  2270  2246    1  0.0000000000      2.1756800000       3
     2252  2268  2270  2271    1  0.0000000000      0.5439200000       3
     2252  2268  2270  2272    1  0.0000000000      2.1756800000       3
     2255  2268  2270  2246    1  0.0000000000      0.6508444444       3
     2255  2268  2270  2271    1  0.0000000000      0.6508444444       3
     2255  2268  2270  2272    1  0.0000000000      0.6508444444       3
     2269  2268  2270  2246    1  0.0000000000      0.5439200000       3
     2269  2268  2270  2271    1  0.0000000000      0.5020800000       3
     2269  2268  2270  2272    1  0.0000000000      0.5439200000       3
     6194  6189  6188  6201    1  180.0000000000    15.1670000000      2
     6188  6189  6190  6191    1  0.0000000000      0.0000000000       2
     6188  6189  6190  6192    1  0.0000000000      0.0000000000       2
     6188  6189  6190  6193    1  0.0000000000      0.0000000000       2
     6188  6189  6194  6195    1  180.0000000000    15.1670000000      2
     6190  6189  6194  6195    1  180.0000000000    15.1670000000      2
     6188  6189  6194  849     1  180.0000000000    15.1670000000      2
     6190  6189  6194  849     1  180.0000000000    15.1670000000      2
     2258  2257  2256  2261    1  0.0000000000      0.0000000000       2
     2259  2257  2256  2261    1  0.0000000000      0.0000000000       2
     2260  2257  2256  2261    1  0.0000000000      0.0000000000       2
     843   845   847   848     1  0.0000000000      0.5439200000       3
     843   845   847   855     1  0.0000000000      2.1756800000       3
     846   845   847   848     1  0.0000000000      0.5020800000       3
     846   845   847   855     1  0.0000000000      0.5439200000       3
     858   845   847   848     1  0.0000000000      0.6508444444       3
     858   845   847   855     1  0.0000000000      0.6508444444       3
     843   845   858   842     1  180.0000000000    1.0041600000       2
     843   845   858   859     1  180.0000000000    1.0041600000       2
     846   845   858   842     1  0.0000000000      0.0000000000       1
     846   845   858   859     1  0.0000000000      0.0000000000       1
     847   845   858   842     1  180.0000000000    1.0041600000       2
     847   845   858   859     1  180.0000000000    1.0041600000       2
     2254  2255  2256  2257    1  180.0000000000    15.1670000000      2
     2254  2255  2256  2261    1  180.0000000000    15.1670000000      2
     2268  2255  2256  2257    1  180.0000000000    15.1670000000      2
     2254  2255  2268  2252    1  180.0000000000    1.0041600000       2
     2254  2255  2268  2269    1  0.0000000000      0.0000000000       1
     2254  2255  2268  2270    1  180.0000000000    1.0041600000       2
     2256  2255  2268  2252    1  180.0000000000    1.0041600000       2
     2256  2255  2268  2269    1  0.0000000000      0.0000000000       1
     2256  2255  2268  2270    1  180.0000000000    1.0041600000       2
     842   858   859   838     1  180.0000000000    15.1670000000      2
     842   858   859   860     1  180.0000000000    15.1670000000      2
     845   858   859   838     1  180.0000000000    15.1670000000      2
     845   858   859   860     1  180.0000000000    15.1670000000      2
     6497  6498  6500  6501    1  180.0000000000    15.1670000000      2
     6497  6498  6500  6516    1  180.0000000000    15.1670000000      2
     6499  6498  6500  6501    1  180.0000000000    15.1670000000      2
     6499  6498  6500  6516    1  180.0000000000    15.1670000000      2
     6503  6505  6507  6508    1  0.0000000000      0.5439200000       3
     6503  6505  6507  6509    1  0.0000000000      2.1756800000       3
     6506  6505  6507  6508    1  0.0000000000      0.5020800000       3
     6506  6505  6507  6509    1  0.0000000000      0.5439200000       3
     6513  6505  6507  6508    1  0.0000000000      0.5439200000       3
     6513  6505  6507  6509    1  0.0000000000      2.1756800000       3
     6503  6505  6513  6511    1  0.0000000000      0.6508444444       3
     6503  6505  6513  6514    1  0.0000000000      0.6508444444       3
     6503  6505  6513  6515    1  0.0000000000      0.6508444444       3
     6506  6505  6513  6511    1  0.0000000000      0.5439200000       3
     6506  6505  6513  6514    1  0.0000000000      0.5020800000       3
     6506  6505  6513  6515    1  0.0000000000      0.5020800000       3
     6507  6505  6513  6514    1  0.0000000000      0.6508444444       3
     6507  6505  6513  6515    1  0.0000000000      0.6508444444       3
     6507  6505  6503  6501    1  0.0000000000      2.1756800000       3
     6507  6505  6503  6504    1  0.0000000000      0.5439200000       3
     6507  6505  6503  6516    1  0.0000000000      0.6508444444       3
     6506  6505  6507  2261    1  0.0000000000      0.6508444444       3
     6513  6505  6507  2261    1  0.0000000000      0.6508444444       3
     6503  6505  6507  2261    1  0.0000000000      0.6508444444       3
     3983  3982  3981  3986    1  0.0000000000      0.0000000000       2
     3984  3982  3981  3986    1  0.0000000000      0.0000000000       2
     3985  3982  3981  3986    1  0.0000000000      0.0000000000       2
     2084  2085  2087  2088    1  0.0000000000      0.6508444444       3
     2084  2085  2087  2089    1  0.0000000000      0.6508444444       3
     2084  2085  2087  2100    1  0.0000000000      0.6508444444       3
     2086  2085  2087  2088    1  0.0000000000      0.6508444444       3
     2086  2085  2087  2089    1  0.0000000000      0.6508444444       3
     2086  2085  2087  2100    1  0.0000000000      0.6508444444       3
     2095  2085  2087  2088    1  0.0000000000      0.6508444444       3
     2095  2085  2087  2089    1  0.0000000000      0.6508444444       3
     2095  2085  2087  2100    1  0.0000000000      0.6508444444       3
     2084  2085  2095  2096    1  0.0000000000      0.6508444444       3
     2084  2085  2095  2097    1  0.0000000000      0.6508444444       3
     2086  2085  2095  2096    1  0.0000000000      0.5020800000       3
     2086  2085  2095  2097    1  0.0000000000      0.5439200000       3
     2087  2085  2095  2096    1  0.0000000000      0.5439200000       3
     2087  2085  2095  2097    1  0.0000000000      2.1756800000       3
     2095  2093  2091  2092    1  0.0000000000      0.6508444444       3
     1158  2093  2091  2092    1  0.0000000000      0.6508444444       3
     1158  2093  2091  1157    1  0.0000000000      0.6508444444       3
     2095  2093  2091  1157    1  0.0000000000      0.6508444444       3
     2093  2095  2085  2084    1  0.0000000000      0.6508444444       3
     2093  2095  2085  2086    1  0.0000000000      0.5439200000       3
     2093  2095  2085  2087    1  0.0000000000      2.1756800000       3
     2085  2095  2093  2091    1  0.0000000000      2.1756800000       3
     2096  2095  2093  2091    1  0.0000000000      0.5439200000       3
     2097  2095  2093  2091    1  0.0000000000      2.1756800000       3
     2085  2095  2093  2094    1  0.0000000000      0.5439200000       3
     2096  2095  2093  2094    1  0.0000000000      0.5020800000       3
     2097  2095  2093  2094    1  0.0000000000      0.5439200000       3
     2085  2095  2097  2089    1  0.0000000000      0.6508444444       3
     2085  2095  2097  2098    1  0.0000000000      0.6508444444       3
     2085  2095  2097  2099    1  0.0000000000      0.6508444444       3
     2093  2095  2097  2098    1  0.0000000000      0.6508444444       3
     2093  2095  2097  2099    1  0.0000000000      0.6508444444       3
     2096  2095  2097  2089    1  0.0000000000      0.5439200000       3
     2096  2095  2097  2098    1  0.0000000000      0.5020800000       3
     2096  2095  2097  2099    1  0.0000000000      0.5020800000       3
     2085  2095  2093  1158    1  0.0000000000      0.6508444444       3
     2096  2095  2093  1158    1  0.0000000000      0.6508444444       3
     2097  2095  2093  1158    1  0.0000000000      0.6508444444       3
     6866  6868  6869  6870    1  0.0000000000      0.0000000000       1
     6866  6868  6869  6871    1  180.0000000000    1.0041600000       2
     6866  6868  6869  6893    1  180.0000000000    1.0041600000       2
     6898  6868  6869  6870    1  0.0000000000      0.0000000000       1
     6898  6868  6869  6871    1  180.0000000000    1.0041600000       2
     6898  6868  6869  6893    1  180.0000000000    1.0041600000       2
     6866  6868  6898  6871    1  180.0000000000    15.1670000000      2
     6866  6868  6898  6899    1  180.0000000000    15.1670000000      2
     6869  6868  6898  6871    1  180.0000000000    15.1670000000      2
     6869  6868  6898  6899    1  180.0000000000    15.1670000000      2
     6868  6898  6899  6864    1  180.0000000000    15.1670000000      2
     6868  6898  6899  6900    1  180.0000000000    15.1670000000      2
     6871  6898  6899  6864    1  180.0000000000    15.1670000000      2
     6871  6898  6899  6900    1  180.0000000000    15.1670000000      2
     6868  6869  6871  6872    1  0.0000000000      0.6508444444       3
     6868  6869  6871  6873    1  0.0000000000      0.6508444444       3
     6868  6869  6871  6898    1  0.0000000000      0.6508444444       3
     6870  6869  6871  6872    1  0.0000000000      0.6508444444       3
     6870  6869  6871  6873    1  0.0000000000      0.6508444444       3
     6870  6869  6871  6898    1  0.0000000000      0.6508444444       3
     6893  6869  6871  6872    1  0.0000000000      0.6508444444       3
     6893  6869  6871  6873    1  0.0000000000      0.6508444444       3
     6893  6869  6871  6898    1  0.0000000000      0.6508444444       3
     6868  6869  6893  6891    1  0.0000000000      0.6508444444       3
     6868  6869  6893  6894    1  0.0000000000      0.6508444444       3
     6868  6869  6893  6895    1  0.0000000000      0.6508444444       3
     6870  6869  6893  6891    1  0.0000000000      0.5439200000       3
     6870  6869  6893  6894    1  0.0000000000      0.5020800000       3
     6870  6869  6893  6895    1  0.0000000000      0.5439200000       3
     6871  6869  6893  6891    1  0.0000000000      2.1756800000       3
     6871  6869  6893  6894    1  0.0000000000      0.5439200000       3
     6871  6869  6893  6895    1  0.0000000000      2.1756800000       3
     6877  6878  6879  6880    1  180.0000000000    15.1670000000      2
     6877  6878  6879  6884    1  180.0000000000    15.1670000000      2
     6891  6878  6879  6880    1  180.0000000000    15.1670000000      2
     6877  6878  6891  6875    1  180.0000000000    1.0041600000       2
     6877  6878  6891  6892    1  0.0000000000      0.0000000000       1
     6877  6878  6891  6893    1  180.0000000000    1.0041600000       2
     6879  6878  6891  6875    1  180.0000000000    1.0041600000       2
     6879  6878  6891  6892    1  0.0000000000      0.0000000000       1
     6879  6878  6891  6893    1  180.0000000000    1.0041600000       2
     6869  6893  6895  6873    1  0.0000000000      0.6508444444       3
     6869  6893  6895  6896    1  0.0000000000      0.6508444444       3
     6869  6893  6895  6897    1  0.0000000000      0.6508444444       3
     6891  6893  6895  6873    1  0.0000000000      0.6508444444       3
     6891  6893  6895  6896    1  0.0000000000      0.6508444444       3
     6891  6893  6895  6897    1  0.0000000000      0.6508444444       3
     6894  6893  6895  6873    1  0.0000000000      0.5439200000       3
     6894  6893  6895  6896    1  0.0000000000      0.5020800000       3
     6894  6893  6895  6897    1  0.0000000000      0.5020800000       3
     2089  2091  2093  2094    1  0.0000000000      0.6508444444       3
     2089  2091  2093  2095    1  0.0000000000      0.6508444444       3
     2092  2091  2093  2094    1  0.0000000000      0.6508444444       3
     2089  2091  2093  1158    1  0.0000000000      0.6508444444       3
     1157  2091  2093  2094    1  0.0000000000      0.6508444444       3
     2095  2097  2089  2091    1  0.0000000000      0.6508444444       3
     2089  2097  2095  2093    1  0.0000000000      0.6508444444       3
     2085  2087  2089  2090    1  0.0000000000      0.5439200000       3
     2085  2087  2089  2097    1  0.0000000000      2.1756800000       3
     2088  2087  2089  2090    1  0.0000000000      0.5020800000       3
     2088  2087  2089  2097    1  0.0000000000      0.5439200000       3
     2100  2087  2089  2090    1  0.0000000000      0.6508444444       3
     2100  2087  2089  2097    1  0.0000000000      0.6508444444       3
     2085  2087  2100  2084    1  180.0000000000    1.0041600000       2
     2085  2087  2100  2101    1  180.0000000000    1.0041600000       2
     2088  2087  2100  2084    1  0.0000000000      0.0000000000       1
     2088  2087  2100  2101    1  0.0000000000      0.0000000000       1
     2089  2087  2100  2084    1  180.0000000000    1.0041600000       2
     2089  2087  2100  2101    1  180.0000000000    1.0041600000       2
     2087  2089  2091  2092    1  0.0000000000      0.5439200000       3
     2087  2089  2091  2093    1  0.0000000000      2.1756800000       3
     2090  2089  2091  2092    1  0.0000000000      0.5020800000       3
     2090  2089  2091  2093    1  0.0000000000      0.5439200000       3
     2097  2089  2091  2092    1  0.0000000000      0.5439200000       3
     2097  2089  2091  2093    1  0.0000000000      2.1756800000       3
     2087  2089  2097  2095    1  0.0000000000      0.6508444444       3
     2087  2089  2097  2098    1  0.0000000000      0.6508444444       3
     2087  2089  2097  2099    1  0.0000000000      0.6508444444       3
     2090  2089  2097  2095    1  0.0000000000      0.5439200000       3
     2090  2089  2097  2098    1  0.0000000000      0.5020800000       3
     2090  2089  2097  2099    1  0.0000000000      0.5020800000       3
     2091  2089  2097  2098    1  0.0000000000      0.6508444444       3
     2091  2089  2097  2099    1  0.0000000000      0.6508444444       3
     2091  2089  2087  2085    1  0.0000000000      2.1756800000       3
     2091  2089  2087  2088    1  0.0000000000      0.5439200000       3
     2091  2089  2087  2100    1  0.0000000000      0.6508444444       3
     2090  2089  2091  1157    1  0.0000000000      0.6508444444       3
     2097  2089  2091  1157    1  0.0000000000      0.6508444444       3
     2087  2089  2091  1157    1  0.0000000000      0.6508444444       3
     2084  2100  2101  2080    1  180.0000000000    15.1670000000      2
     2084  2100  2101  2102    1  180.0000000000    15.1670000000      2
     2087  2100  2101  2080    1  180.0000000000    15.1670000000      2
     2087  2100  2101  2102    1  180.0000000000    15.1670000000      2
     6865  6866  6868  6869    1  180.0000000000    15.1670000000      2
     6865  6866  6868  6898    1  180.0000000000    15.1670000000      2
     6867  6866  6868  6869    1  180.0000000000    15.1670000000      2
     6867  6866  6868  6898    1  180.0000000000    15.1670000000      2
     2082  2084  2085  2086    1  0.0000000000      0.0000000000       1
     2082  2084  2085  2087    1  180.0000000000    1.0041600000       2
     2082  2084  2085  2095    1  180.0000000000    1.0041600000       2
     2100  2084  2085  2086    1  0.0000000000      0.0000000000       1
     2100  2084  2085  2087    1  180.0000000000    1.0041600000       2
     2100  2084  2085  2095    1  180.0000000000    1.0041600000       2
     2082  2084  2100  2087    1  180.0000000000    15.1670000000      2
     2082  2084  2100  2101    1  180.0000000000    15.1670000000      2
     2085  2084  2100  2087    1  180.0000000000    15.1670000000      2
     2085  2084  2100  2101    1  180.0000000000    15.1670000000      2
     6875  6891  6893  6869    1  0.0000000000      2.1756800000       3
     6875  6891  6893  6894    1  0.0000000000      0.5439200000       3
     6875  6891  6893  6895    1  0.0000000000      2.1756800000       3
     6878  6891  6893  6869    1  0.0000000000      0.6508444444       3
     6878  6891  6893  6894    1  0.0000000000      0.6508444444       3
     6878  6891  6893  6895    1  0.0000000000      0.6508444444       3
     6892  6891  6893  6869    1  0.0000000000      0.5439200000       3
     6892  6891  6893  6894    1  0.0000000000      0.5020800000       3
     6892  6891  6893  6895    1  0.0000000000      0.5439200000       3
     6878  6879  6880  6881    1  0.0000000000      0.0000000000       2
     6878  6879  6880  6882    1  0.0000000000      0.0000000000       2
     6878  6879  6880  6883    1  0.0000000000      0.0000000000       2
     6878  6879  6884  6885    1  180.0000000000    15.1670000000      2
     6880  6879  6884  6885    1  180.0000000000    15.1670000000      2
     6884  6879  6878  6891    1  180.0000000000    15.1670000000      2
     6880  6879  6884  4784    1  180.0000000000    15.1670000000      2
     6878  6879  6884  4784    1  180.0000000000    15.1670000000      2
     6881  6880  6879  6884    1  0.0000000000      0.0000000000       2
     6882  6880  6879  6884    1  0.0000000000      0.0000000000       2
     6883  6880  6879  6884    1  0.0000000000      0.0000000000       2
     6869  6871  6873  6874    1  0.0000000000      0.5439200000       3
     6869  6871  6873  6875    1  0.0000000000      2.1756800000       3
     6869  6871  6873  6895    1  0.0000000000      2.1756800000       3
     6872  6871  6873  6874    1  0.0000000000      0.5020800000       3
     6872  6871  6873  6875    1  0.0000000000      0.5439200000       3
     6872  6871  6873  6895    1  0.0000000000      0.5439200000       3
     6898  6871  6873  6874    1  0.0000000000      0.6508444444       3
     6898  6871  6873  6875    1  0.0000000000      0.6508444444       3
     6898  6871  6873  6895    1  0.0000000000      0.6508444444       3
     6869  6871  6898  6868    1  180.0000000000    1.0041600000       2
     6869  6871  6898  6899    1  180.0000000000    1.0041600000       2
     6872  6871  6898  6868    1  0.0000000000      0.0000000000       1
     6872  6871  6898  6899    1  0.0000000000      0.0000000000       1
     6873  6871  6898  6868    1  180.0000000000    1.0041600000       2
     6873  6871  6898  6899    1  180.0000000000    1.0041600000       2
     6879  6884  6885  6886    1  180.0000000000    15.1670000000      2
     4784  6884  6885  4782    1  180.0000000000    15.1670000000      2
     6879  6884  4784  4782    1  180.0000000000    1.0041600000       2
     6885  6884  4784  4782    1  180.0000000000    1.0041600000       2
     6879  6884  4784  4785    1  0.0000000000      0.0000000000       1
     6885  6884  4784  4785    1  0.0000000000      0.0000000000       1
     6879  6884  4784  4786    1  180.0000000000    1.0041600000       2
     6885  6884  4784  4786    1  180.0000000000    1.0041600000       2
     6879  6884  6885  4782    1  180.0000000000    15.1670000000      2
     6875  6877  6878  6879    1  180.0000000000    15.1670000000      2
     6875  6877  6878  6891    1  180.0000000000    15.1670000000      2
     6886  6877  6878  6879    1  180.0000000000    15.1670000000      2
     6886  6877  6878  6891    1  180.0000000000    15.1670000000      2
     6875  6877  6886  6887    1  180.0000000000    15.1670000000      2
     6878  6877  6886  6885    1  180.0000000000    15.1670000000      2
     6878  6877  6886  6887    1  180.0000000000    15.1670000000      2
     6884  6885  6886  6877    1  180.0000000000    15.1670000000      2
     6886  6885  6884  4784    1  180.0000000000    15.1670000000      2
     6884  6885  4782  4780    1  180.0000000000    1.0041600000       2
     6886  6885  4782  4780    1  180.0000000000    1.0041600000       2
     6884  6885  4782  4783    1  0.0000000000      0.0000000000       1
     6886  6885  4782  4783    1  0.0000000000      0.0000000000       1
     6884  6885  4782  4784    1  180.0000000000    1.0041600000       2
     6886  6885  4782  4784    1  180.0000000000    1.0041600000       2
     6873  6875  6877  6878    1  180.0000000000    1.0041600000       2
     6873  6875  6877  6886    1  180.0000000000    1.0041600000       2
     6876  6875  6877  6878    1  0.0000000000      0.0000000000       1
     6876  6875  6877  6886    1  0.0000000000      0.0000000000       1
     6891  6875  6877  6878    1  180.0000000000    1.0041600000       2
     6891  6875  6877  6886    1  180.0000000000    1.0041600000       2
     6873  6875  6891  6878    1  0.0000000000      0.6508444444       3
     6873  6875  6891  6892    1  0.0000000000      0.6508444444       3
     6873  6875  6891  6893    1  0.0000000000      0.6508444444       3
     6876  6875  6891  6878    1  0.0000000000      0.6508444444       3
     6876  6875  6891  6892    1  0.0000000000      0.6508444444       3
     6876  6875  6891  6893    1  0.0000000000      0.6508444444       3
     6877  6875  6891  6878    1  0.0000000000      0.6508444444       3
     6877  6875  6891  6892    1  0.0000000000      0.6508444444       3
     6877  6875  6891  6893    1  0.0000000000      0.6508444444       3
     1157  1158  1159  1150    1  180.0000000000    15.1670000000      2
     2093  1158  1157  2091    1  180.0000000000    15.1670000000      2
     1157  1158  2093  2091    1  180.0000000000    1.0041600000       2
     1159  1158  2093  2091    1  180.0000000000    1.0041600000       2
     1157  1158  2093  2094    1  0.0000000000      0.0000000000       1
     1159  1158  2093  2094    1  0.0000000000      0.0000000000       1
     1157  1158  2093  2095    1  180.0000000000    1.0041600000       2
     1159  1158  2093  2095    1  180.0000000000    1.0041600000       2
     1159  1158  1157  2091    1  180.0000000000    15.1670000000      2
     2075  2080  2081  2082    1  180.0000000000    15.1670000000      2
     2075  2080  2081  2103    1  180.0000000000    15.1670000000      2
     2101  2080  2081  2082    1  180.0000000000    15.1670000000      2
     2101  2080  2081  2103    1  180.0000000000    15.1670000000      2
     2075  2080  2101  2100    1  180.0000000000    15.1670000000      2
     2075  2080  2101  2102    1  180.0000000000    15.1670000000      2
     2081  2080  2101  2100    1  180.0000000000    15.1670000000      2
     2081  2080  2101  2102    1  180.0000000000    15.1670000000      2
     2081  2082  2084  2085    1  180.0000000000    15.1670000000      2
     2081  2082  2084  2100    1  180.0000000000    15.1670000000      2
     2083  2082  2084  2085    1  180.0000000000    15.1670000000      2
     2083  2082  2084  2100    1  180.0000000000    15.1670000000      2
     2080  2081  2082  2083    1  180.0000000000    15.1670000000      2
     2080  2081  2082  2084    1  180.0000000000    15.1670000000      2
     2103  2081  2082  2083    1  180.0000000000    15.1670000000      2
     2103  2081  2082  2084    1  180.0000000000    15.1670000000      2
     2080  2081  2103  2104    1  180.0000000000    4.1840000000       2
     2080  2081  2103  2138    1  180.0000000000    4.1840000000       2
     2082  2081  2103  2104    1  180.0000000000    4.1840000000       2
     2082  2081  2103  2138    1  180.0000000000    4.1840000000       2
     1118  1119  1121  1122    1  0.0000000000      0.6508444444       3
     1118  1119  1121  1123    1  0.0000000000      0.6508444444       3
     1118  1119  1121  1134    1  0.0000000000      0.6508444444       3
     1120  1119  1121  1122    1  0.0000000000      0.6508444444       3
     1120  1119  1121  1123    1  0.0000000000      0.6508444444       3
     1120  1119  1121  1134    1  0.0000000000      0.6508444444       3
     1129  1119  1121  1122    1  0.0000000000      0.6508444444       3
     1129  1119  1121  1123    1  0.0000000000      0.6508444444       3
     1129  1119  1121  1134    1  0.0000000000      0.6508444444       3
     1118  1119  1129  1130    1  0.0000000000      0.6508444444       3
     1118  1119  1129  1131    1  0.0000000000      0.6508444444       3
     1120  1119  1129  1130    1  0.0000000000      0.5020800000       3
     1120  1119  1129  1131    1  0.0000000000      0.5439200000       3
     1121  1119  1129  1130    1  0.0000000000      0.5439200000       3
     1121  1119  1129  1131    1  0.0000000000      2.1756800000       3
     2071  2075  2076  2077    1  0.0000000000      0.5439200000       3
     2071  2075  2076  2078    1  0.0000000000      0.5439200000       3
     2071  2075  2076  2079    1  0.0000000000      0.5439200000       3
     2080  2075  2076  2077    1  0.0000000000      0.6508444444       3
     2080  2075  2076  2078    1  0.0000000000      0.6508444444       3
     2080  2075  2076  2079    1  0.0000000000      0.6508444444       3
     2104  2075  2076  2077    1  0.0000000000      0.6508444444       3
     2104  2075  2076  2078    1  0.0000000000      0.6508444444       3
     2104  2075  2076  2079    1  0.0000000000      0.6508444444       3
     2071  2075  2080  2081    1  0.0000000000      0.0000000000       2
     2071  2075  2080  2101    1  180.0000000000    1.0041600000       2
     2076  2075  2080  2081    1  0.0000000000      0.0000000000       2
     2076  2075  2080  2101    1  180.0000000000    1.0041600000       2
     2104  2075  2080  2081    1  0.0000000000      0.0000000000       2
     2104  2075  2080  2101    1  180.0000000000    0.0000000000       2
     2071  2075  2104  2103    1  0.0000000000      0.0000000000       2
     2071  2075  2104  2105    1  180.0000000000    1.0041600000       2
     2076  2075  2104  2103    1  0.0000000000      0.0000000000       2
     2076  2075  2104  2105    1  180.0000000000    1.0041600000       2
     2080  2075  2104  2103    1  0.0000000000      0.0000000000       2
     2080  2075  2104  2105    1  180.0000000000    0.0000000000       2
     3431  3430  3429  3434    1  0.0000000000      0.0000000000       2
     3432  3430  3429  3434    1  0.0000000000      0.0000000000       2
     3433  3430  3429  3434    1  0.0000000000      0.0000000000       2
     2081  2103  2104  2075    1  180.0000000000    15.1670000000      2
     2081  2103  2104  2105    1  180.0000000000    15.1670000000      2
     2138  2103  2104  2075    1  180.0000000000    15.1670000000      2
     2138  2103  2104  2105    1  180.0000000000    15.1670000000      2
     2081  2103  2138  2137    1  180.0000000000    15.1670000000      2
     2081  2103  2138  2139    1  180.0000000000    15.1670000000      2
     2104  2103  2138  2137    1  180.0000000000    15.1670000000      2
     2104  2103  2138  2139    1  180.0000000000    15.1670000000      2
     6871  6873  6875  6876    1  0.0000000000      0.5439200000       3
     6871  6873  6875  6877    1  0.0000000000      0.6508444444       3
     6871  6873  6875  6891    1  0.0000000000      2.1756800000       3
     6874  6873  6875  6876    1  0.0000000000      0.5020800000       3
     6874  6873  6875  6877    1  0.0000000000      0.6508444444       3
     6874  6873  6875  6891    1  0.0000000000      0.5439200000       3
     6895  6873  6875  6876    1  0.0000000000      0.5439200000       3
     6895  6873  6875  6877    1  0.0000000000      0.6508444444       3
     6895  6873  6875  6891    1  0.0000000000      2.1756800000       3
     6871  6873  6895  6893    1  0.0000000000      0.6508444444       3
     6871  6873  6895  6896    1  0.0000000000      0.6508444444       3
     6871  6873  6895  6897    1  0.0000000000      0.6508444444       3
     6874  6873  6895  6893    1  0.0000000000      0.5439200000       3
     6874  6873  6895  6896    1  0.0000000000      0.5020800000       3
     6874  6873  6895  6897    1  0.0000000000      0.5020800000       3
     6875  6873  6895  6893    1  0.0000000000      0.6508444444       3
     6875  6873  6895  6896    1  0.0000000000      0.6508444444       3
     6875  6873  6895  6897    1  0.0000000000      0.6508444444       3
     2072  2071  2075  2076    1  0.0000000000      0.5439200000       3
     2072  2071  2075  2080    1  0.0000000000      0.6508444444       3
     2072  2071  2075  2104    1  0.0000000000      0.6508444444       3
     2073  2071  2075  2076    1  0.0000000000      0.5439200000       3
     2073  2071  2075  2080    1  0.0000000000      0.6508444444       3
     2073  2071  2075  2104    1  0.0000000000      0.6508444444       3
     2074  2071  2075  2076    1  0.0000000000      0.5439200000       3
     2074  2071  2075  2080    1  0.0000000000      0.6508444444       3
     2074  2071  2075  2104    1  0.0000000000      0.6508444444       3
     6887  6886  6885  6884    1  180.0000000000    15.1670000000      2
     6885  6886  6877  6875    1  180.0000000000    15.1670000000      2
     6877  6886  6887  6888    1  0.0000000000      0.0000000000       2
     6877  6886  6887  6889    1  0.0000000000      0.0000000000       2
     6877  6886  6887  6890    1  0.0000000000      0.0000000000       2
     6877  6886  6885  4782    1  180.0000000000    15.1670000000      2
     6887  6886  6885  4782    1  180.0000000000    15.1670000000      2
     1161  1160  1159  1158    1  0.0000000000      0.0000000000       2
     1162  1160  1159  1158    1  0.0000000000      0.0000000000       2
     1163  1160  1159  1158    1  0.0000000000      0.0000000000       2
     1152  1157  1158  1159    1  180.0000000000    15.1670000000      2
     1152  1157  1158  2093    1  180.0000000000    15.1670000000      2
     1152  1157  2091  2089    1  180.0000000000    1.0041600000       2
     1158  1157  2091  2089    1  180.0000000000    1.0041600000       2
     1152  1157  2091  2092    1  0.0000000000      0.0000000000       1
     1158  1157  2091  2092    1  0.0000000000      0.0000000000       1
     1152  1157  2091  2093    1  180.0000000000    1.0041600000       2
     1158  1157  2091  2093    1  180.0000000000    1.0041600000       2
     6496  6497  6498  6499    1  180.0000000000    15.1670000000      2
     6496  6497  6498  6500    1  180.0000000000    15.1670000000      2
     6519  6497  6498  6499    1  180.0000000000    15.1670000000      2
     6519  6497  6498  6500    1  180.0000000000    15.1670000000      2
     6496  6497  6519  6520    1  180.0000000000    4.1840000000       2
     6496  6497  6519  6554    1  180.0000000000    4.1840000000       2
     6498  6497  6519  6520    1  180.0000000000    4.1840000000       2
     6498  6497  6519  6554    1  180.0000000000    4.1840000000       2
     6842  6843  6845  6846    1  180.0000000000    15.1670000000      2
     6842  6843  6845  6861    1  180.0000000000    15.1670000000      2
     6844  6843  6845  6846    1  180.0000000000    15.1670000000      2
     6844  6843  6845  6861    1  180.0000000000    15.1670000000      2
     1154  1153  1152  1157    1  0.0000000000      0.0000000000       2
     1155  1153  1152  1157    1  0.0000000000      0.0000000000       2
     1156  1153  1152  1157    1  0.0000000000      0.0000000000       2
     6520  6521  6523  6524    1  180.0000000000    15.1670000000      2
     6520  6521  6523  6553    1  180.0000000000    15.1670000000      2
     6522  6521  6523  6524    1  180.0000000000    15.1670000000      2
     6522  6521  6523  6553    1  180.0000000000    15.1670000000      2
     6500  6516  6517  6496    1  180.0000000000    15.1670000000      2
     6500  6516  6517  6518    1  180.0000000000    15.1670000000      2
     6503  6516  6517  6496    1  180.0000000000    15.1670000000      2
     6503  6516  6517  6518    1  180.0000000000    15.1670000000      2
     5259  5261  5263  5264    1  0.0000000000      0.5439200000       3
     5259  5261  5263  5265    1  0.0000000000      2.1756800000       3
     5259  5261  5263  5271    1  0.0000000000      2.1756800000       3
     5262  5261  5263  5264    1  0.0000000000      0.5020800000       3
     5262  5261  5263  5265    1  0.0000000000      0.5439200000       3
     5262  5261  5263  5271    1  0.0000000000      0.5439200000       3
     5274  5261  5263  5264    1  0.0000000000      0.6508444444       3
     5274  5261  5263  5265    1  0.0000000000      0.6508444444       3
     5274  5261  5263  5271    1  0.0000000000      0.6508444444       3
     5259  5261  5274  5258    1  180.0000000000    1.0041600000       2
     5259  5261  5274  5275    1  180.0000000000    1.0041600000       2
     5262  5261  5274  5258    1  0.0000000000      0.0000000000       1
     5262  5261  5274  5275    1  0.0000000000      0.0000000000       1
     5263  5261  5274  5258    1  180.0000000000    1.0041600000       2
     5263  5261  5274  5275    1  180.0000000000    1.0041600000       2
     1158  1159  1150  1148    1  180.0000000000    15.1670000000      2
     1160  1159  1158  1157    1  180.0000000000    15.1670000000      2
     1150  1159  1160  1161    1  0.0000000000      0.0000000000       2
     1150  1159  1160  1162    1  0.0000000000      0.0000000000       2
     1150  1159  1160  1163    1  0.0000000000      0.0000000000       2
     1150  1159  1158  2093    1  180.0000000000    15.1670000000      2
     1160  1159  1158  2093    1  180.0000000000    15.1670000000      2
     6845  6846  6848  6849    1  0.0000000000      0.6508444444       3
     6845  6846  6848  6850    1  0.0000000000      0.6508444444       3
     6845  6846  6848  6861    1  0.0000000000      0.6508444444       3
     6847  6846  6848  6849    1  0.0000000000      0.6508444444       3
     6847  6846  6848  6850    1  0.0000000000      0.6508444444       3
     6847  6846  6848  6861    1  0.0000000000      0.6508444444       3
     6856  6846  6848  6849    1  0.0000000000      0.6508444444       3
     6856  6846  6848  6850    1  0.0000000000      0.6508444444       3
     6856  6846  6848  6861    1  0.0000000000      0.6508444444       3
     6845  6846  6856  6857    1  0.0000000000      0.6508444444       3
     6845  6846  6856  6858    1  0.0000000000      0.6508444444       3
     6847  6846  6856  6857    1  0.0000000000      0.5020800000       3
     6847  6846  6856  6858    1  0.0000000000      0.5439200000       3
     6848  6846  6856  6857    1  0.0000000000      0.5439200000       3
     6848  6846  6856  6858    1  0.0000000000      2.1756800000       3
     6846  6856  6858  6850    1  0.0000000000      0.6508444444       3
     6846  6856  6858  6859    1  0.0000000000      0.6508444444       3
     6846  6856  6858  6860    1  0.0000000000      0.6508444444       3
     6854  6856  6858  6859    1  0.0000000000      0.6508444444       3
     6854  6856  6858  6860    1  0.0000000000      0.6508444444       3
     6857  6856  6858  6850    1  0.0000000000      0.5439200000       3
     6857  6856  6858  6859    1  0.0000000000      0.5020800000       3
     6857  6856  6858  6860    1  0.0000000000      0.5020800000       3
     6846  6856  6854  6852    1  0.0000000000      2.1756800000       3
     6857  6856  6854  6852    1  0.0000000000      0.5439200000       3
     6858  6856  6854  6852    1  0.0000000000      2.1756800000       3
     6846  6856  6854  6855    1  0.0000000000      0.5439200000       3
     6857  6856  6854  6855    1  0.0000000000      0.5020800000       3
     6858  6856  6854  6855    1  0.0000000000      0.5439200000       3
     6854  6856  6846  6845    1  0.0000000000      0.6508444444       3
     6854  6856  6846  6847    1  0.0000000000      0.5439200000       3
     6854  6856  6846  6848    1  0.0000000000      2.1756800000       3
     6857  6856  6854  5298    1  0.0000000000      0.6508444444       3
     6858  6856  6854  5298    1  0.0000000000      0.6508444444       3
     6846  6856  6854  5298    1  0.0000000000      0.6508444444       3
     6846  6848  6850  6851    1  0.0000000000      0.5439200000       3
     6846  6848  6850  6858    1  0.0000000000      2.1756800000       3
     6849  6848  6850  6851    1  0.0000000000      0.5020800000       3
     6849  6848  6850  6858    1  0.0000000000      0.5439200000       3
     6861  6848  6850  6851    1  0.0000000000      0.6508444444       3
     6861  6848  6850  6858    1  0.0000000000      0.6508444444       3
     6846  6848  6861  6845    1  180.0000000000    1.0041600000       2
     6846  6848  6861  6862    1  180.0000000000    1.0041600000       2
     6849  6848  6861  6845    1  0.0000000000      0.0000000000       1
     6849  6848  6861  6862    1  0.0000000000      0.0000000000       1
     6850  6848  6861  6845    1  180.0000000000    1.0041600000       2
     6850  6848  6861  6862    1  180.0000000000    1.0041600000       2
     6491  6520  6521  6522    1  180.0000000000    15.1670000000      2
     6491  6520  6521  6523    1  180.0000000000    15.1670000000      2
     6519  6520  6521  6522    1  180.0000000000    15.1670000000      2
     6519  6520  6521  6523    1  180.0000000000    15.1670000000      2
     1146  1148  1150  1151    1  180.0000000000    1.0041600000       2
     1146  1148  1150  1159    1  180.0000000000    1.0041600000       2
     1149  1148  1150  1151    1  0.0000000000      0.0000000000       1
     1149  1148  1150  1159    1  0.0000000000      0.0000000000       1
     1164  1148  1150  1151    1  180.0000000000    1.0041600000       2
     1164  1148  1150  1159    1  180.0000000000    1.0041600000       2
     1146  1148  1164  1151    1  0.0000000000      0.6508444444       3
     1146  1148  1164  1165    1  0.0000000000      0.6508444444       3
     1146  1148  1164  1166    1  0.0000000000      0.6508444444       3
     1149  1148  1164  1151    1  0.0000000000      0.6508444444       3
     1149  1148  1164  1165    1  0.0000000000      0.6508444444       3
     1149  1148  1164  1166    1  0.0000000000      0.6508444444       3
     1150  1148  1164  1151    1  0.0000000000      0.6508444444       3
     1150  1148  1164  1165    1  0.0000000000      0.6508444444       3
     1150  1148  1164  1166    1  0.0000000000      0.6508444444       3
     6850  6858  6856  6854    1  0.0000000000      0.6508444444       3
     6856  6858  6850  6852    1  0.0000000000      0.6508444444       3
     6497  6519  6520  6491    1  180.0000000000    15.1670000000      2
     6497  6519  6520  6521    1  180.0000000000    15.1670000000      2
     6554  6519  6520  6491    1  180.0000000000    15.1670000000      2
     6554  6519  6520  6521    1  180.0000000000    15.1670000000      2
     6497  6519  6554  6553    1  180.0000000000    15.1670000000      2
     6497  6519  6554  6555    1  180.0000000000    15.1670000000      2
     6520  6519  6554  6553    1  180.0000000000    15.1670000000      2
     6520  6519  6554  6555    1  180.0000000000    15.1670000000      2
     6832  6836  6837  6838    1  0.0000000000      0.5439200000       3
     6832  6836  6837  6839    1  0.0000000000      0.5439200000       3
     6832  6836  6837  6840    1  0.0000000000      0.5439200000       3
     6841  6836  6837  6838    1  0.0000000000      0.6508444444       3
     6841  6836  6837  6839    1  0.0000000000      0.6508444444       3
     6841  6836  6837  6840    1  0.0000000000      0.6508444444       3
     6865  6836  6837  6838    1  0.0000000000      0.6508444444       3
     6865  6836  6837  6839    1  0.0000000000      0.6508444444       3
     6865  6836  6837  6840    1  0.0000000000      0.6508444444       3
     6832  6836  6841  6842    1  0.0000000000      0.0000000000       2
     6832  6836  6841  6862    1  180.0000000000    1.0041600000       2
     6837  6836  6841  6842    1  0.0000000000      0.0000000000       2
     6837  6836  6841  6862    1  180.0000000000    1.0041600000       2
     6865  6836  6841  6842    1  0.0000000000      0.0000000000       2
     6865  6836  6841  6862    1  180.0000000000    0.0000000000       2
     6832  6836  6865  6864    1  0.0000000000      0.0000000000       2
     6832  6836  6865  6866    1  180.0000000000    1.0041600000       2
     6837  6836  6865  6864    1  0.0000000000      0.0000000000       2
     6837  6836  6865  6866    1  180.0000000000    1.0041600000       2
     6841  6836  6865  6864    1  0.0000000000      0.0000000000       2
     6841  6836  6865  6866    1  180.0000000000    0.0000000000       2
     6836  6865  6866  6867    1  180.0000000000    15.1670000000      2
     6836  6865  6866  6868    1  180.0000000000    15.1670000000      2
     6864  6865  6866  6867    1  180.0000000000    15.1670000000      2
     6864  6865  6866  6868    1  180.0000000000    15.1670000000      2
     6498  6500  6501  6502    1  0.0000000000      0.0000000000       1
     6498  6500  6501  6503    1  180.0000000000    1.0041600000       2
     6498  6500  6501  6511    1  180.0000000000    1.0041600000       2
     6516  6500  6501  6502    1  0.0000000000      0.0000000000       1
     6516  6500  6501  6503    1  180.0000000000    1.0041600000       2
     6516  6500  6501  6511    1  180.0000000000    1.0041600000       2
     6498  6500  6516  6503    1  180.0000000000    15.1670000000      2
     6498  6500  6516  6517    1  180.0000000000    15.1670000000      2
     6501  6500  6516  6503    1  180.0000000000    15.1670000000      2
     6501  6500  6516  6517    1  180.0000000000    15.1670000000      2
     6836  6841  6842  6843    1  180.0000000000    15.1670000000      2
     6836  6841  6842  6864    1  180.0000000000    15.1670000000      2
     6862  6841  6842  6843    1  180.0000000000    15.1670000000      2
     6862  6841  6842  6864    1  180.0000000000    15.1670000000      2
     6836  6841  6862  6861    1  180.0000000000    15.1670000000      2
     6836  6841  6862  6863    1  180.0000000000    15.1670000000      2
     6842  6841  6862  6861    1  180.0000000000    15.1670000000      2
     6842  6841  6862  6863    1  180.0000000000    15.1670000000      2
     6491  6496  6497  6498    1  180.0000000000    15.1670000000      2
     6491  6496  6497  6519    1  180.0000000000    15.1670000000      2
     6517  6496  6497  6498    1  180.0000000000    15.1670000000      2
     6517  6496  6497  6519    1  180.0000000000    15.1670000000      2
     6491  6496  6517  6516    1  180.0000000000    15.1670000000      2
     6491  6496  6517  6518    1  180.0000000000    15.1670000000      2
     6497  6496  6517  6516    1  180.0000000000    15.1670000000      2
     6497  6496  6517  6518    1  180.0000000000    15.1670000000      2
     6841  6842  6843  6844    1  180.0000000000    15.1670000000      2
     6841  6842  6843  6845    1  180.0000000000    15.1670000000      2
     6864  6842  6843  6844    1  180.0000000000    15.1670000000      2
     6864  6842  6843  6845    1  180.0000000000    15.1670000000      2
     6841  6842  6864  6865    1  180.0000000000    4.1840000000       2
     6841  6842  6864  6899    1  180.0000000000    4.1840000000       2
     6843  6842  6864  6865    1  180.0000000000    4.1840000000       2
     6843  6842  6864  6899    1  180.0000000000    4.1840000000       2
     6852  6850  6848  6846    1  0.0000000000      2.1756800000       3
     6852  6850  6848  6849    1  0.0000000000      0.5439200000       3
     6852  6850  6848  6861    1  0.0000000000      0.6508444444       3
     6848  6850  6852  6853    1  0.0000000000      0.5439200000       3
     6848  6850  6852  6854    1  0.0000000000      2.1756800000       3
     6851  6850  6852  6853    1  0.0000000000      0.5020800000       3
     6851  6850  6852  6854    1  0.0000000000      0.5439200000       3
     6858  6850  6852  6853    1  0.0000000000      0.5439200000       3
     6858  6850  6852  6854    1  0.0000000000      2.1756800000       3
     6848  6850  6858  6856    1  0.0000000000      0.6508444444       3
     6848  6850  6858  6859    1  0.0000000000      0.6508444444       3
     6848  6850  6858  6860    1  0.0000000000      0.6508444444       3
     6851  6850  6858  6856    1  0.0000000000      0.5439200000       3
     6851  6850  6858  6859    1  0.0000000000      0.5020800000       3
     6851  6850  6858  6860    1  0.0000000000      0.5020800000       3
     6852  6850  6858  6859    1  0.0000000000      0.6508444444       3
     6852  6850  6858  6860    1  0.0000000000      0.6508444444       3
     6848  6850  6852  5297    1  0.0000000000      0.6508444444       3
     6851  6850  6852  5297    1  0.0000000000      0.6508444444       3
     6858  6850  6852  5297    1  0.0000000000      0.6508444444       3
     6845  6861  6862  6841    1  180.0000000000    15.1670000000      2
     6845  6861  6862  6863    1  180.0000000000    15.1670000000      2
     6848  6861  6862  6841    1  180.0000000000    15.1670000000      2
     6848  6861  6862  6863    1  180.0000000000    15.1670000000      2
     6488  6487  6491  6492    1  0.0000000000      0.5439200000       3
     6488  6487  6491  6496    1  0.0000000000      0.6508444444       3
     6488  6487  6491  6520    1  0.0000000000      0.6508444444       3
     6489  6487  6491  6492    1  0.0000000000      0.5439200000       3
     6489  6487  6491  6496    1  0.0000000000      0.6508444444       3
     6489  6487  6491  6520    1  0.0000000000      0.6508444444       3
     6490  6487  6491  6492    1  0.0000000000      0.5439200000       3
     6490  6487  6491  6496    1  0.0000000000      0.6508444444       3
     6490  6487  6491  6520    1  0.0000000000      0.6508444444       3
     1151  1152  1153  1154    1  0.0000000000      0.0000000000       2
     1151  1152  1153  1155    1  0.0000000000      0.0000000000       2
     1151  1152  1153  1156    1  0.0000000000      0.0000000000       2
     1151  1152  1157  1158    1  180.0000000000    15.1670000000      2
     1153  1152  1157  1158    1  180.0000000000    15.1670000000      2
     1157  1152  1151  1164    1  180.0000000000    15.1670000000      2
     1153  1152  1157  2091    1  180.0000000000    15.1670000000      2
     1151  1152  1157  2091    1  180.0000000000    15.1670000000      2
     1148  1150  1151  1152    1  180.0000000000    15.1670000000      2
     1148  1150  1151  1164    1  180.0000000000    15.1670000000      2
     1159  1150  1151  1152    1  180.0000000000    15.1670000000      2
     1159  1150  1151  1164    1  180.0000000000    15.1670000000      2
     1148  1150  1159  1160    1  180.0000000000    15.1670000000      2
     1151  1150  1159  1158    1  180.0000000000    15.1670000000      2
     1151  1150  1159  1160    1  180.0000000000    15.1670000000      2
     6487  6491  6492  6493    1  0.0000000000      0.5439200000       3
     6487  6491  6492  6494    1  0.0000000000      0.5439200000       3
     6487  6491  6492  6495    1  0.0000000000      0.5439200000       3
     6496  6491  6492  6493    1  0.0000000000      0.6508444444       3
     6496  6491  6492  6494    1  0.0000000000      0.6508444444       3
     6496  6491  6492  6495    1  0.0000000000      0.6508444444       3
     6520  6491  6492  6493    1  0.0000000000      0.6508444444       3
     6520  6491  6492  6494    1  0.0000000000      0.6508444444       3
     6520  6491  6492  6495    1  0.0000000000      0.6508444444       3
     6487  6491  6496  6497    1  0.0000000000      0.0000000000       2
     6487  6491  6496  6517    1  180.0000000000    1.0041600000       2
     6492  6491  6496  6497    1  0.0000000000      0.0000000000       2
     6492  6491  6496  6517    1  180.0000000000    1.0041600000       2
     6520  6491  6496  6497    1  0.0000000000      0.0000000000       2
     6520  6491  6496  6517    1  180.0000000000    0.0000000000       2
     6487  6491  6520  6519    1  0.0000000000      0.0000000000       2
     6487  6491  6520  6521    1  180.0000000000    1.0041600000       2
     6492  6491  6520  6519    1  0.0000000000      0.0000000000       2
     6492  6491  6520  6521    1  180.0000000000    1.0041600000       2
     6496  6491  6520  6519    1  0.0000000000      0.0000000000       2
     6496  6491  6520  6521    1  180.0000000000    0.0000000000       2
     6842  6864  6865  6836    1  180.0000000000    15.1670000000      2
     6842  6864  6865  6866    1  180.0000000000    15.1670000000      2
     6899  6864  6865  6836    1  180.0000000000    15.1670000000      2
     6899  6864  6865  6866    1  180.0000000000    15.1670000000      2
     6842  6864  6899  6898    1  180.0000000000    15.1670000000      2
     6842  6864  6899  6900    1  180.0000000000    15.1670000000      2
     6865  6864  6899  6898    1  180.0000000000    15.1670000000      2
     6865  6864  6899  6900    1  180.0000000000    15.1670000000      2
     6501  6503  6505  6506    1  0.0000000000      0.5439200000       3
     6501  6503  6505  6513    1  0.0000000000      2.1756800000       3
     6504  6503  6505  6506    1  0.0000000000      0.5020800000       3
     6504  6503  6505  6513    1  0.0000000000      0.5439200000       3
     6516  6503  6505  6506    1  0.0000000000      0.6508444444       3
     6516  6503  6505  6513    1  0.0000000000      0.6508444444       3
     6501  6503  6516  6500    1  180.0000000000    1.0041600000       2
     6501  6503  6516  6517    1  180.0000000000    1.0041600000       2
     6504  6503  6516  6500    1  0.0000000000      0.0000000000       1
     6504  6503  6516  6517    1  0.0000000000      0.0000000000       1
     6505  6503  6516  6500    1  180.0000000000    1.0041600000       2
     6505  6503  6516  6517    1  180.0000000000    1.0041600000       2
     6843  6845  6846  6847    1  0.0000000000      0.0000000000       1
     6843  6845  6846  6848    1  180.0000000000    1.0041600000       2
     6843  6845  6846  6856    1  180.0000000000    1.0041600000       2
     6861  6845  6846  6847    1  0.0000000000      0.0000000000       1
     6861  6845  6846  6848    1  180.0000000000    1.0041600000       2
     6861  6845  6846  6856    1  180.0000000000    1.0041600000       2
     6843  6845  6861  6848    1  180.0000000000    15.1670000000      2
     6843  6845  6861  6862    1  180.0000000000    15.1670000000      2
     6846  6845  6861  6848    1  180.0000000000    15.1670000000      2
     6846  6845  6861  6862    1  180.0000000000    15.1670000000      2
     1150  1151  1152  1153    1  180.0000000000    15.1670000000      2
     1150  1151  1152  1157    1  180.0000000000    15.1670000000      2
     1164  1151  1152  1153    1  180.0000000000    15.1670000000      2
     1150  1151  1164  1148    1  180.0000000000    1.0041600000       2
     1150  1151  1164  1165    1  0.0000000000      0.0000000000       1
     1150  1151  1164  1166    1  180.0000000000    1.0041600000       2
     1152  1151  1164  1148    1  180.0000000000    1.0041600000       2
     1152  1151  1164  1165    1  0.0000000000      0.0000000000       1
     1152  1151  1164  1166    1  180.0000000000    1.0041600000       2
     6833  6832  6836  6837    1  0.0000000000      0.5439200000       3
     6833  6832  6836  6841    1  0.0000000000      0.6508444444       3
     6833  6832  6836  6865    1  0.0000000000      0.6508444444       3
     6834  6832  6836  6837    1  0.0000000000      0.5439200000       3
     6834  6832  6836  6841    1  0.0000000000      0.6508444444       3
     6834  6832  6836  6865    1  0.0000000000      0.6508444444       3
     6835  6832  6836  6837    1  0.0000000000      0.5439200000       3
     6835  6832  6836  6841    1  0.0000000000      0.6508444444       3
     6835  6832  6836  6865    1  0.0000000000      0.6508444444       3
     5263  5265  5267  5268    1  0.0000000000      0.5439200000       3
     5263  5265  5267  5269    1  0.0000000000      2.1756800000       3
     5266  5265  5267  5268    1  0.0000000000      0.5020800000       3
     5266  5265  5267  5269    1  0.0000000000      0.5439200000       3
     567   577   575   573     1  0.0000000000      2.1756800000       3
     578   577   575   573     1  0.0000000000      0.5439200000       3
     579   577   575   573     1  0.0000000000      2.1756800000       3
     567   577   575   576     1  0.0000000000      0.5439200000       3
     578   577   575   576     1  0.0000000000      0.5020800000       3
     579   577   575   576     1  0.0000000000      0.5439200000       3
     567   577   579   571     1  0.0000000000      0.6508444444       3
     567   577   579   580     1  0.0000000000      0.6508444444       3
     567   577   579   581     1  0.0000000000      0.6508444444       3
     575   577   579   580     1  0.0000000000      0.6508444444       3
     575   577   579   581     1  0.0000000000      0.6508444444       3
     578   577   579   571     1  0.0000000000      0.5439200000       3
     578   577   579   580     1  0.0000000000      0.5020800000       3
     578   577   579   581     1  0.0000000000      0.5020800000       3
     575   577   567   566     1  0.0000000000      0.6508444444       3
     575   577   567   568     1  0.0000000000      0.5439200000       3
     575   577   567   569     1  0.0000000000      2.1756800000       3
     578   577   575   5781    1  0.0000000000      0.6508444444       3
     579   577   575   5781    1  0.0000000000      0.6508444444       3
     567   577   575   5781    1  0.0000000000      0.6508444444       3
     5741  5742  5744  5745    1  0.0000000000      0.6508444444       3
     5741  5742  5744  5746    1  0.0000000000      0.6508444444       3
     5741  5742  5744  5757    1  0.0000000000      0.6508444444       3
     5743  5742  5744  5745    1  0.0000000000      0.6508444444       3
     5743  5742  5744  5746    1  0.0000000000      0.6508444444       3
     5743  5742  5744  5757    1  0.0000000000      0.6508444444       3
     5752  5742  5744  5745    1  0.0000000000      0.6508444444       3
     5752  5742  5744  5746    1  0.0000000000      0.6508444444       3
     5752  5742  5744  5757    1  0.0000000000      0.6508444444       3
     5741  5742  5752  5753    1  0.0000000000      0.6508444444       3
     5741  5742  5752  5754    1  0.0000000000      0.6508444444       3
     5743  5742  5752  5753    1  0.0000000000      0.5020800000       3
     5743  5742  5752  5754    1  0.0000000000      0.5439200000       3
     5744  5742  5752  5753    1  0.0000000000      0.5439200000       3
     5744  5742  5752  5754    1  0.0000000000      2.1756800000       3
     5742  5744  5746  5747    1  0.0000000000      0.5439200000       3
     5742  5744  5746  5754    1  0.0000000000      2.1756800000       3
     5745  5744  5746  5747    1  0.0000000000      0.5020800000       3
     5745  5744  5746  5754    1  0.0000000000      0.5439200000       3
     5757  5744  5746  5747    1  0.0000000000      0.6508444444       3
     5757  5744  5746  5754    1  0.0000000000      0.6508444444       3
     5742  5744  5757  5741    1  180.0000000000    1.0041600000       2
     5742  5744  5757  5758    1  180.0000000000    1.0041600000       2
     5745  5744  5757  5741    1  0.0000000000      0.0000000000       1
     5745  5744  5757  5758    1  0.0000000000      0.0000000000       1
     5746  5744  5757  5741    1  180.0000000000    1.0041600000       2
     5746  5744  5757  5758    1  180.0000000000    1.0041600000       2
     5748  5746  5744  5742    1  0.0000000000      2.1756800000       3
     5748  5746  5744  5745    1  0.0000000000      0.5439200000       3
     5748  5746  5744  5757    1  0.0000000000      0.6508444444       3
     5744  5746  5748  5749    1  0.0000000000      0.5439200000       3
     5744  5746  5748  5750    1  0.0000000000      2.1756800000       3
     5747  5746  5748  5749    1  0.0000000000      0.5020800000       3
     5747  5746  5748  5750    1  0.0000000000      0.5439200000       3
     5754  5746  5748  5749    1  0.0000000000      0.5439200000       3
     5754  5746  5748  5750    1  0.0000000000      2.1756800000       3
     5744  5746  5754  5752    1  0.0000000000      0.6508444444       3
     5744  5746  5754  5755    1  0.0000000000      0.6508444444       3
     5744  5746  5754  5756    1  0.0000000000      0.6508444444       3
     5747  5746  5754  5752    1  0.0000000000      0.5439200000       3
     5747  5746  5754  5755    1  0.0000000000      0.5020800000       3
     5747  5746  5754  5756    1  0.0000000000      0.5020800000       3
     5748  5746  5754  5755    1  0.0000000000      0.6508444444       3
     5748  5746  5754  5756    1  0.0000000000      0.6508444444       3
     5744  5746  5748  3296    1  0.0000000000      0.6508444444       3
     5747  5746  5748  3296    1  0.0000000000      0.6508444444       3
     5754  5746  5748  3296    1  0.0000000000      0.6508444444       3
     3296  3297  3298  3289    1  180.0000000000    15.1670000000      2
     3298  3297  3296  5748    1  180.0000000000    15.1670000000      2
     3298  3297  5750  5751    1  0.0000000000      0.0000000000       1
     3296  3297  5750  5751    1  0.0000000000      0.0000000000       1
     3298  3297  5750  5752    1  180.0000000000    1.0041600000       2
     3296  3297  5750  5752    1  180.0000000000    1.0041600000       2
     3298  3297  5750  5748    1  180.0000000000    1.0041600000       2
     3296  3297  5750  5748    1  180.0000000000    1.0041600000       2
     5752  5750  5748  5749    1  0.0000000000      0.6508444444       3
     5752  5750  5748  3296    1  0.0000000000      0.6508444444       3
     3297  5750  5748  5749    1  0.0000000000      0.6508444444       3
     5742  5752  5750  5748    1  0.0000000000      2.1756800000       3
     5753  5752  5750  5748    1  0.0000000000      0.5439200000       3
     5754  5752  5750  5748    1  0.0000000000      2.1756800000       3
     5742  5752  5750  5751    1  0.0000000000      0.5439200000       3
     5753  5752  5750  5751    1  0.0000000000      0.5020800000       3
     5754  5752  5750  5751    1  0.0000000000      0.5439200000       3
     5742  5752  5754  5746    1  0.0000000000      0.6508444444       3
     5742  5752  5754  5755    1  0.0000000000      0.6508444444       3
     5742  5752  5754  5756    1  0.0000000000      0.6508444444       3
     5750  5752  5754  5755    1  0.0000000000      0.6508444444       3
     5750  5752  5754  5756    1  0.0000000000      0.6508444444       3
     5753  5752  5754  5746    1  0.0000000000      0.5439200000       3
     5753  5752  5754  5755    1  0.0000000000      0.5020800000       3
     5753  5752  5754  5756    1  0.0000000000      0.5020800000       3
     5750  5752  5742  5741    1  0.0000000000      0.6508444444       3
     5750  5752  5742  5743    1  0.0000000000      0.5439200000       3
     5750  5752  5742  5744    1  0.0000000000      2.1756800000       3
     5753  5752  5750  3297    1  0.0000000000      0.6508444444       3
     5754  5752  5750  3297    1  0.0000000000      0.6508444444       3
     5742  5752  5750  3297    1  0.0000000000      0.6508444444       3
     5746  5748  5750  5751    1  0.0000000000      0.6508444444       3
     5746  5748  5750  5752    1  0.0000000000      0.6508444444       3
     5749  5748  5750  5751    1  0.0000000000      0.6508444444       3
     3296  5748  5750  5751    1  0.0000000000      0.6508444444       3
     3296  5748  5750  3297    1  0.0000000000      0.6508444444       3
     5746  5748  5750  3297    1  0.0000000000      0.6508444444       3
     5746  5754  5752  5750    1  0.0000000000      0.6508444444       3
     5752  5754  5746  5748    1  0.0000000000      0.6508444444       3
     5741  5757  5758  5737    1  180.0000000000    15.1670000000      2
     5741  5757  5758  5759    1  180.0000000000    15.1670000000      2
     5744  5757  5758  5737    1  180.0000000000    15.1670000000      2
     5744  5757  5758  5759    1  180.0000000000    15.1670000000      2
     5739  5741  5742  5743    1  0.0000000000      0.0000000000       1
     5739  5741  5742  5744    1  180.0000000000    1.0041600000       2
     5739  5741  5742  5752    1  180.0000000000    1.0041600000       2
     5757  5741  5742  5743    1  0.0000000000      0.0000000000       1
     5757  5741  5742  5744    1  180.0000000000    1.0041600000       2
     5757  5741  5742  5752    1  180.0000000000    1.0041600000       2
     5739  5741  5757  5744    1  180.0000000000    15.1670000000      2
     5739  5741  5757  5758    1  180.0000000000    15.1670000000      2
     5742  5741  5757  5744    1  180.0000000000    15.1670000000      2
     5742  5741  5757  5758    1  180.0000000000    15.1670000000      2
     577   575   573   574     1  0.0000000000      0.6508444444       3
     5781  575   573   574     1  0.0000000000      0.6508444444       3
     5781  575   573   5780    1  0.0000000000      0.6508444444       3
     577   575   573   5780    1  0.0000000000      0.6508444444       3
     6086  6102  6103  6082    1  180.0000000000    15.1670000000      2
     6086  6102  6103  6104    1  180.0000000000    15.1670000000      2
     6089  6102  6103  6082    1  180.0000000000    15.1670000000      2
     6089  6102  6103  6104    1  180.0000000000    15.1670000000      2
     566   567   569   570     1  0.0000000000      0.6508444444       3
     566   567   569   571     1  0.0000000000      0.6508444444       3
     566   567   569   582     1  0.0000000000      0.6508444444       3
     568   567   569   570     1  0.0000000000      0.6508444444       3
     568   567   569   571     1  0.0000000000      0.6508444444       3
     568   567   569   582     1  0.0000000000      0.6508444444       3
     577   567   569   570     1  0.0000000000      0.6508444444       3
     577   567   569   571     1  0.0000000000      0.6508444444       3
     577   567   569   582     1  0.0000000000      0.6508444444       3
     566   567   577   578     1  0.0000000000      0.6508444444       3
     566   567   577   579     1  0.0000000000      0.6508444444       3
     568   567   577   578     1  0.0000000000      0.5020800000       3
     568   567   577   579     1  0.0000000000      0.5439200000       3
     569   567   577   578     1  0.0000000000      0.5439200000       3
     569   567   577   579     1  0.0000000000      2.1756800000       3
     3291  3296  3297  3298    1  180.0000000000    15.1670000000      2
     5748  3296  3297  5750    1  180.0000000000    15.1670000000      2
     3297  3296  5748  5749    1  0.0000000000      0.0000000000       1
     3291  3296  5748  5749    1  0.0000000000      0.0000000000       1
     3297  3296  5748  5750    1  180.0000000000    1.0041600000       2
     3291  3296  5748  5750    1  180.0000000000    1.0041600000       2
     3297  3296  5748  5746    1  180.0000000000    1.0041600000       2
     3291  3296  5748  5746    1  180.0000000000    1.0041600000       2
     3291  3296  3297  5750    1  180.0000000000    15.1670000000      2
     563   564   566   567     1  180.0000000000    15.1670000000      2
     563   564   566   582     1  180.0000000000    15.1670000000      2
     565   564   566   567     1  180.0000000000    15.1670000000      2
     565   564   566   582     1  180.0000000000    15.1670000000      2
     564   566   567   568     1  0.0000000000      0.0000000000       1
     564   566   567   569     1  180.0000000000    1.0041600000       2
     564   566   567   577     1  180.0000000000    1.0041600000       2
     582   566   567   568     1  0.0000000000      0.0000000000       1
     582   566   567   569     1  180.0000000000    1.0041600000       2
     582   566   567   577     1  180.0000000000    1.0041600000       2
     564   566   582   569     1  180.0000000000    15.1670000000      2
     564   566   582   583     1  180.0000000000    15.1670000000      2
     567   566   582   569     1  180.0000000000    15.1670000000      2
     567   566   582   583     1  180.0000000000    15.1670000000      2
     3248  3277  3278  3279    1  180.0000000000    15.1670000000      2
     3248  3277  3278  3280    1  180.0000000000    15.1670000000      2
     3276  3277  3278  3279    1  180.0000000000    15.1670000000      2
     3276  3277  3278  3280    1  180.0000000000    15.1670000000      2
     6074  6073  6077  6078    1  0.0000000000      0.5439200000       3
     6074  6073  6077  6082    1  0.0000000000      0.6508444444       3
     6074  6073  6077  6106    1  0.0000000000      0.6508444444       3
     6075  6073  6077  6078    1  0.0000000000      0.5439200000       3
     6075  6073  6077  6082    1  0.0000000000      0.6508444444       3
     6075  6073  6077  6106    1  0.0000000000      0.6508444444       3
     6076  6073  6077  6078    1  0.0000000000      0.5439200000       3
     6076  6073  6077  6082    1  0.0000000000      0.6508444444       3
     6076  6073  6077  6106    1  0.0000000000      0.6508444444       3
     6077  6082  6083  6084    1  180.0000000000    15.1670000000      2
     6077  6082  6083  6105    1  180.0000000000    15.1670000000      2
     6103  6082  6083  6084    1  180.0000000000    15.1670000000      2
     6103  6082  6083  6105    1  180.0000000000    15.1670000000      2
     6077  6082  6103  6102    1  180.0000000000    15.1670000000      2
     6077  6082  6103  6104    1  180.0000000000    15.1670000000      2
     6083  6082  6103  6102    1  180.0000000000    15.1670000000      2
     6083  6082  6103  6104    1  180.0000000000    15.1670000000      2
     571   573   575   576     1  0.0000000000      0.6508444444       3
     571   573   575   577     1  0.0000000000      0.6508444444       3
     574   573   575   576     1  0.0000000000      0.6508444444       3
     571   573   575   5781    1  0.0000000000      0.6508444444       3
     5780  573   575   576     1  0.0000000000      0.6508444444       3
     6073  6077  6078  6079    1  0.0000000000      0.5439200000       3
     6073  6077  6078  6080    1  0.0000000000      0.5439200000       3
     6073  6077  6078  6081    1  0.0000000000      0.5439200000       3
     6082  6077  6078  6079    1  0.0000000000      0.6508444444       3
     6082  6077  6078  6080    1  0.0000000000      0.6508444444       3
     6082  6077  6078  6081    1  0.0000000000      0.6508444444       3
     6106  6077  6078  6079    1  0.0000000000      0.6508444444       3
     6106  6077  6078  6080    1  0.0000000000      0.6508444444       3
     6106  6077  6078  6081    1  0.0000000000      0.6508444444       3
     6073  6077  6082  6083    1  0.0000000000      0.0000000000       2
     6073  6077  6082  6103    1  180.0000000000    1.0041600000       2
     6078  6077  6082  6083    1  0.0000000000      0.0000000000       2
     6078  6077  6082  6103    1  180.0000000000    1.0041600000       2
     6106  6077  6082  6083    1  0.0000000000      0.0000000000       2
     6106  6077  6082  6103    1  180.0000000000    0.0000000000       2
     6073  6077  6106  6105    1  0.0000000000      0.0000000000       2
     6073  6077  6106  6107    1  180.0000000000    1.0041600000       2
     6078  6077  6106  6105    1  0.0000000000      0.0000000000       2
     6078  6077  6106  6107    1  180.0000000000    1.0041600000       2
     6082  6077  6106  6105    1  0.0000000000      0.0000000000       2
     6082  6077  6106  6107    1  180.0000000000    0.0000000000       2
     5281  5311  5312  5277    1  180.0000000000    15.1670000000      2
     5281  5311  5312  5313    1  180.0000000000    15.1670000000      2
     5284  5311  5312  5277    1  180.0000000000    15.1670000000      2
     5284  5311  5312  5313    1  180.0000000000    15.1670000000      2
     3277  3278  3280  3281    1  180.0000000000    15.1670000000      2
     3277  3278  3280  3310    1  180.0000000000    15.1670000000      2
     3279  3278  3280  3281    1  180.0000000000    15.1670000000      2
     3279  3278  3280  3310    1  180.0000000000    15.1670000000      2
     5784  5783  5782  5781    1  0.0000000000      0.0000000000       2
     5785  5783  5782  5781    1  0.0000000000      0.0000000000       2
     5786  5783  5782  5781    1  0.0000000000      0.0000000000       2
     3293  3292  3291  3296    1  0.0000000000      0.0000000000       2
     3294  3292  3291  3296    1  0.0000000000      0.0000000000       2
     3295  3292  3291  3296    1  0.0000000000      0.0000000000       2
     3290  3291  3292  3293    1  0.0000000000      0.0000000000       2
     3290  3291  3292  3294    1  0.0000000000      0.0000000000       2
     3290  3291  3292  3295    1  0.0000000000      0.0000000000       2
     3290  3291  3296  3297    1  180.0000000000    15.1670000000      2
     3292  3291  3296  3297    1  180.0000000000    15.1670000000      2
     3296  3291  3290  3303    1  180.0000000000    15.1670000000      2
     3292  3291  3296  5748    1  180.0000000000    15.1670000000      2
     3290  3291  3296  5748    1  180.0000000000    15.1670000000      2
     3299  3298  3297  3296    1  180.0000000000    15.1670000000      2
     3289  3298  3299  3300    1  0.0000000000      0.0000000000       2
     3289  3298  3299  3301    1  0.0000000000      0.0000000000       2
     3289  3298  3299  3302    1  0.0000000000      0.0000000000       2
     3297  3298  3289  3287    1  180.0000000000    15.1670000000      2
     3299  3298  3297  5750    1  180.0000000000    15.1670000000      2
     3289  3298  3297  5750    1  180.0000000000    15.1670000000      2
     3278  3280  3281  3282    1  0.0000000000      0.0000000000       1
     3278  3280  3281  3283    1  180.0000000000    1.0041600000       2
     3278  3280  3281  3305    1  180.0000000000    1.0041600000       2
     3310  3280  3281  3282    1  0.0000000000      0.0000000000       1
     3310  3280  3281  3283    1  180.0000000000    1.0041600000       2
     3310  3280  3281  3305    1  180.0000000000    1.0041600000       2
     3278  3280  3310  3283    1  180.0000000000    15.1670000000      2
     3278  3280  3310  3311    1  180.0000000000    15.1670000000      2
     3281  3280  3310  3283    1  180.0000000000    15.1670000000      2
     3281  3280  3310  3311    1  180.0000000000    15.1670000000      2
     6084  6086  6087  6088    1  0.0000000000      0.0000000000       1
     6084  6086  6087  6089    1  180.0000000000    1.0041600000       2
     6084  6086  6087  6097    1  180.0000000000    1.0041600000       2
     6102  6086  6087  6088    1  0.0000000000      0.0000000000       1
     6102  6086  6087  6089    1  180.0000000000    1.0041600000       2
     6102  6086  6087  6097    1  180.0000000000    1.0041600000       2
     6084  6086  6102  6089    1  180.0000000000    15.1670000000      2
     6084  6086  6102  6103    1  180.0000000000    15.1670000000      2
     6087  6086  6102  6089    1  180.0000000000    15.1670000000      2
     6087  6086  6102  6103    1  180.0000000000    15.1670000000      2
     3199  3197  3195  3196    1  0.0000000000      0.6508444444       3
     1226  3197  3195  3196    1  0.0000000000      0.6508444444       3
     1226  3197  3195  1227    1  0.0000000000      0.6508444444       3
     3199  3197  3195  1227    1  0.0000000000      0.6508444444       3
     3300  3299  3298  3297    1  0.0000000000      0.0000000000       2
     3301  3299  3298  3297    1  0.0000000000      0.0000000000       2
     3302  3299  3298  3297    1  0.0000000000      0.0000000000       2
     3254  3276  3277  3248    1  180.0000000000    15.1670000000      2
     3254  3276  3277  3278    1  180.0000000000    15.1670000000      2
     3311  3276  3277  3248    1  180.0000000000    15.1670000000      2
     3311  3276  3277  3278    1  180.0000000000    15.1670000000      2
     3254  3276  3311  3310    1  180.0000000000    15.1670000000      2
     3254  3276  3311  3312    1  180.0000000000    15.1670000000      2
     3277  3276  3311  3310    1  180.0000000000    15.1670000000      2
     3277  3276  3311  3312    1  180.0000000000    15.1670000000      2
     6087  6089  6091  6092    1  0.0000000000      0.5439200000       3
     6087  6089  6091  6099    1  0.0000000000      2.1756800000       3
     6090  6089  6091  6092    1  0.0000000000      0.5020800000       3
     6090  6089  6091  6099    1  0.0000000000      0.5439200000       3
     6102  6089  6091  6092    1  0.0000000000      0.6508444444       3
     6102  6089  6091  6099    1  0.0000000000      0.6508444444       3
     6087  6089  6102  6086    1  180.0000000000    1.0041600000       2
     6087  6089  6102  6103    1  180.0000000000    1.0041600000       2
     6090  6089  6102  6086    1  0.0000000000      0.0000000000       1
     6090  6089  6102  6103    1  0.0000000000      0.0000000000       1
     6091  6089  6102  6086    1  180.0000000000    1.0041600000       2
     6091  6089  6102  6103    1  180.0000000000    1.0041600000       2
     5738  5739  5741  5742    1  180.0000000000    15.1670000000      2
     5738  5739  5741  5757    1  180.0000000000    15.1670000000      2
     5740  5739  5741  5742    1  180.0000000000    15.1670000000      2
     5740  5739  5741  5757    1  180.0000000000    15.1670000000      2
     3244  3248  3249  3250    1  0.0000000000      0.5439200000       3
     3244  3248  3249  3251    1  0.0000000000      0.5439200000       3
     3244  3248  3249  3252    1  0.0000000000      0.5439200000       3
     3253  3248  3249  3250    1  0.0000000000      0.6508444444       3
     3253  3248  3249  3251    1  0.0000000000      0.6508444444       3
     3253  3248  3249  3252    1  0.0000000000      0.6508444444       3
     3277  3248  3249  3250    1  0.0000000000      0.6508444444       3
     3277  3248  3249  3251    1  0.0000000000      0.6508444444       3
     3277  3248  3249  3252    1  0.0000000000      0.6508444444       3
     3244  3248  3253  3254    1  0.0000000000      0.0000000000       2
     3244  3248  3253  3274    1  180.0000000000    1.0041600000       2
     3249  3248  3253  3254    1  0.0000000000      0.0000000000       2
     3249  3248  3253  3274    1  180.0000000000    1.0041600000       2
     3277  3248  3253  3254    1  0.0000000000      0.0000000000       2
     3277  3248  3253  3274    1  180.0000000000    0.0000000000       2
     3244  3248  3277  3276    1  0.0000000000      0.0000000000       2
     3244  3248  3277  3278    1  180.0000000000    1.0041600000       2
     3249  3248  3277  3276    1  0.0000000000      0.0000000000       2
     3249  3248  3277  3278    1  180.0000000000    1.0041600000       2
     3253  3248  3277  3276    1  0.0000000000      0.0000000000       2
     3253  3248  3277  3278    1  180.0000000000    0.0000000000       2
     3245  3244  3248  3249    1  0.0000000000      0.5439200000       3
     3245  3244  3248  3253    1  0.0000000000      0.6508444444       3
     3245  3244  3248  3277    1  0.0000000000      0.6508444444       3
     3246  3244  3248  3249    1  0.0000000000      0.5439200000       3
     3246  3244  3248  3253    1  0.0000000000      0.6508444444       3
     3246  3244  3248  3277    1  0.0000000000      0.6508444444       3
     3247  3244  3248  3249    1  0.0000000000      0.5439200000       3
     3247  3244  3248  3253    1  0.0000000000      0.6508444444       3
     3247  3244  3248  3277    1  0.0000000000      0.6508444444       3
     5281  5282  5284  5285    1  0.0000000000      0.6508444444       3
     5281  5282  5284  5286    1  0.0000000000      0.6508444444       3
     5281  5282  5284  5311    1  0.0000000000      0.6508444444       3
     5283  5282  5284  5285    1  0.0000000000      0.6508444444       3
     5283  5282  5284  5286    1  0.0000000000      0.6508444444       3
     5283  5282  5284  5311    1  0.0000000000      0.6508444444       3
     5306  5282  5284  5285    1  0.0000000000      0.6508444444       3
     5306  5282  5284  5286    1  0.0000000000      0.6508444444       3
     5306  5282  5284  5311    1  0.0000000000      0.6508444444       3
     5281  5282  5306  5304    1  0.0000000000      0.6508444444       3
     5281  5282  5306  5307    1  0.0000000000      0.6508444444       3
     5281  5282  5306  5308    1  0.0000000000      0.6508444444       3
     5283  5282  5306  5304    1  0.0000000000      0.5439200000       3
     5283  5282  5306  5307    1  0.0000000000      0.5020800000       3
     5283  5282  5306  5308    1  0.0000000000      0.5439200000       3
     5284  5282  5306  5304    1  0.0000000000      2.1756800000       3
     5284  5282  5306  5307    1  0.0000000000      0.5439200000       3
     5284  5282  5306  5308    1  0.0000000000      2.1756800000       3
     2903  2932  2933  2934    1  180.0000000000    15.1670000000      2
     2903  2932  2933  2935    1  180.0000000000    15.1670000000      2
     2931  2932  2933  2934    1  180.0000000000    15.1670000000      2
     2931  2932  2933  2935    1  180.0000000000    15.1670000000      2
     1223  1222  1221  1226    1  0.0000000000      0.0000000000       2
     1224  1222  1221  1226    1  0.0000000000      0.0000000000       2
     1225  1222  1221  1226    1  0.0000000000      0.0000000000       2
     2932  2933  2935  2936    1  180.0000000000    15.1670000000      2
     2932  2933  2935  2965    1  180.0000000000    15.1670000000      2
     2934  2933  2935  2936    1  180.0000000000    15.1670000000      2
     2934  2933  2935  2965    1  180.0000000000    15.1670000000      2
     3281  3305  3307  3285    1  0.0000000000      0.6508444444       3
     3281  3305  3307  3308    1  0.0000000000      0.6508444444       3
     3281  3305  3307  3309    1  0.0000000000      0.6508444444       3
     3303  3305  3307  3285    1  0.0000000000      0.6508444444       3
     3303  3305  3307  3308    1  0.0000000000      0.6508444444       3
     3303  3305  3307  3309    1  0.0000000000      0.6508444444       3
     3306  3305  3307  3285    1  0.0000000000      0.5439200000       3
     3306  3305  3307  3308    1  0.0000000000      0.5020800000       3
     3306  3305  3307  3309    1  0.0000000000      0.5020800000       3
     609   608   607   606     1  0.0000000000      0.0000000000       2
     610   608   607   606     1  0.0000000000      0.0000000000       2
     611   608   607   606     1  0.0000000000      0.0000000000       2
     2900  2899  2903  2904    1  0.0000000000      0.5439200000       3
     2900  2899  2903  2908    1  0.0000000000      0.6508444444       3
     2900  2899  2903  2932    1  0.0000000000      0.6508444444       3
     2901  2899  2903  2904    1  0.0000000000      0.5439200000       3
     2901  2899  2903  2908    1  0.0000000000      0.6508444444       3
     2901  2899  2903  2932    1  0.0000000000      0.6508444444       3
     2902  2899  2903  2904    1  0.0000000000      0.5439200000       3
     2902  2899  2903  2908    1  0.0000000000      0.6508444444       3
     2902  2899  2903  2932    1  0.0000000000      0.6508444444       3
     3280  3281  3283  3284    1  0.0000000000      0.6508444444       3
     3280  3281  3283  3285    1  0.0000000000      0.6508444444       3
     3280  3281  3283  3310    1  0.0000000000      0.6508444444       3
     3282  3281  3283  3284    1  0.0000000000      0.6508444444       3
     3282  3281  3283  3285    1  0.0000000000      0.6508444444       3
     3282  3281  3283  3310    1  0.0000000000      0.6508444444       3
     3305  3281  3283  3284    1  0.0000000000      0.6508444444       3
     3305  3281  3283  3285    1  0.0000000000      0.6508444444       3
     3305  3281  3283  3310    1  0.0000000000      0.6508444444       3
     3280  3281  3305  3303    1  0.0000000000      0.6508444444       3
     3280  3281  3305  3306    1  0.0000000000      0.6508444444       3
     3280  3281  3305  3307    1  0.0000000000      0.6508444444       3
     3282  3281  3305  3303    1  0.0000000000      0.5439200000       3
     3282  3281  3305  3306    1  0.0000000000      0.5020800000       3
     3282  3281  3305  3307    1  0.0000000000      0.5439200000       3
     3283  3281  3305  3303    1  0.0000000000      2.1756800000       3
     3283  3281  3305  3306    1  0.0000000000      0.5439200000       3
     3283  3281  3305  3307    1  0.0000000000      2.1756800000       3
     3280  3310  3311  3276    1  180.0000000000    15.1670000000      2
     3280  3310  3311  3312    1  180.0000000000    15.1670000000      2
     3283  3310  3311  3276    1  180.0000000000    15.1670000000      2
     3283  3310  3311  3312    1  180.0000000000    15.1670000000      2
     606   607   598   596     1  180.0000000000    15.1670000000      2
     608   607   606   605     1  180.0000000000    15.1670000000      2
     598   607   608   609     1  0.0000000000      0.0000000000       2
     598   607   608   610     1  0.0000000000      0.0000000000       2
     598   607   608   611     1  0.0000000000      0.0000000000       2
     598   607   606   230     1  180.0000000000    15.1670000000      2
     608   607   606   230     1  180.0000000000    15.1670000000      2
     2903  2908  2909  2910    1  180.0000000000    15.1670000000      2
     2903  2908  2909  2931    1  180.0000000000    15.1670000000      2
     2929  2908  2909  2910    1  180.0000000000    15.1670000000      2
     2929  2908  2909  2931    1  180.0000000000    15.1670000000      2
     2903  2908  2929  2928    1  180.0000000000    15.1670000000      2
     2903  2908  2929  2930    1  180.0000000000    15.1670000000      2
     2909  2908  2929  2928    1  180.0000000000    15.1670000000      2
     2909  2908  2929  2930    1  180.0000000000    15.1670000000      2
     2899  2903  2904  2905    1  0.0000000000      0.5439200000       3
     2899  2903  2904  2906    1  0.0000000000      0.5439200000       3
     2899  2903  2904  2907    1  0.0000000000      0.5439200000       3
     2908  2903  2904  2905    1  0.0000000000      0.6508444444       3
     2908  2903  2904  2906    1  0.0000000000      0.6508444444       3
     2908  2903  2904  2907    1  0.0000000000      0.6508444444       3
     2932  2903  2904  2905    1  0.0000000000      0.6508444444       3
     2932  2903  2904  2906    1  0.0000000000      0.6508444444       3
     2932  2903  2904  2907    1  0.0000000000      0.6508444444       3
     2899  2903  2908  2909    1  0.0000000000      0.0000000000       2
     2899  2903  2908  2929    1  180.0000000000    1.0041600000       2
     2904  2903  2908  2909    1  0.0000000000      0.0000000000       2
     2904  2903  2908  2929    1  180.0000000000    1.0041600000       2
     2932  2903  2908  2909    1  0.0000000000      0.0000000000       2
     2932  2903  2908  2929    1  180.0000000000    0.0000000000       2
     2899  2903  2932  2931    1  0.0000000000      0.0000000000       2
     2899  2903  2932  2933    1  180.0000000000    1.0041600000       2
     2904  2903  2932  2931    1  0.0000000000      0.0000000000       2
     2904  2903  2932  2933    1  180.0000000000    1.0041600000       2
     2908  2903  2932  2931    1  0.0000000000      0.0000000000       2
     2908  2903  2932  2933    1  180.0000000000    0.0000000000       2
     605   606   607   598     1  180.0000000000    15.1670000000      2
     607   606   605   228     1  180.0000000000    15.1670000000      2
     605   606   230   228     1  180.0000000000    1.0041600000       2
     607   606   230   228     1  180.0000000000    1.0041600000       2
     605   606   230   231     1  0.0000000000      0.0000000000       1
     607   606   230   231     1  0.0000000000      0.0000000000       1
     605   606   230   232     1  180.0000000000    1.0041600000       2
     607   606   230   232     1  180.0000000000    1.0041600000       2
     3281  3283  3285  3286    1  0.0000000000      0.5439200000       3
     3281  3283  3285  3287    1  0.0000000000      2.1756800000       3
     3281  3283  3285  3307    1  0.0000000000      2.1756800000       3
     3284  3283  3285  3286    1  0.0000000000      0.5020800000       3
     3284  3283  3285  3287    1  0.0000000000      0.5439200000       3
     3284  3283  3285  3307    1  0.0000000000      0.5439200000       3
     3310  3283  3285  3286    1  0.0000000000      0.6508444444       3
     3310  3283  3285  3287    1  0.0000000000      0.6508444444       3
     3310  3283  3285  3307    1  0.0000000000      0.6508444444       3
     3281  3283  3310  3280    1  180.0000000000    1.0041600000       2
     3281  3283  3310  3311    1  180.0000000000    1.0041600000       2
     3284  3283  3310  3280    1  0.0000000000      0.0000000000       1
     3284  3283  3310  3311    1  0.0000000000      0.0000000000       1
     3285  3283  3310  3280    1  180.0000000000    1.0041600000       2
     3285  3283  3310  3311    1  180.0000000000    1.0041600000       2
     2923  2925  2917  2919    1  0.0000000000      0.6508444444       3
     2917  2925  2923  2921    1  0.0000000000      0.6508444444       3
     592   594   596   597     1  0.0000000000      0.5439200000       3
     592   594   596   598     1  0.0000000000      0.6508444444       3
     592   594   596   612     1  0.0000000000      2.1756800000       3
     595   594   596   597     1  0.0000000000      0.5020800000       3
     595   594   596   598     1  0.0000000000      0.6508444444       3
     595   594   596   612     1  0.0000000000      0.5439200000       3
     616   594   596   597     1  0.0000000000      0.5439200000       3
     616   594   596   598     1  0.0000000000      0.6508444444       3
     616   594   596   612     1  0.0000000000      2.1756800000       3
     592   594   616   614     1  0.0000000000      0.6508444444       3
     592   594   616   617     1  0.0000000000      0.6508444444       3
     592   594   616   618     1  0.0000000000      0.6508444444       3
     595   594   616   614     1  0.0000000000      0.5439200000       3
     595   594   616   617     1  0.0000000000      0.5020800000       3
     595   594   616   618     1  0.0000000000      0.5020800000       3
     596   594   616   614     1  0.0000000000      0.6508444444       3
     596   594   616   617     1  0.0000000000      0.6508444444       3
     596   594   616   618     1  0.0000000000      0.6508444444       3
     3289  3290  3291  3292    1  180.0000000000    15.1670000000      2
     3289  3290  3291  3296    1  180.0000000000    15.1670000000      2
     3303  3290  3291  3292    1  180.0000000000    15.1670000000      2
     3289  3290  3303  3287    1  180.0000000000    1.0041600000       2
     3289  3290  3303  3304    1  0.0000000000      0.0000000000       1
     3289  3290  3303  3305    1  180.0000000000    1.0041600000       2
     3291  3290  3303  3287    1  180.0000000000    1.0041600000       2
     3291  3290  3303  3304    1  0.0000000000      0.0000000000       1
     3291  3290  3303  3305    1  180.0000000000    1.0041600000       2
     596   598   599   600     1  180.0000000000    15.1670000000      2
     596   598   599   612     1  180.0000000000    15.1670000000      2
     607   598   599   600     1  180.0000000000    15.1670000000      2
     607   598   599   612     1  180.0000000000    15.1670000000      2
     596   598   607   608     1  180.0000000000    15.1670000000      2
     599   598   607   606     1  180.0000000000    15.1670000000      2
     599   598   607   608     1  180.0000000000    15.1670000000      2
     3285  3287  3289  3290    1  180.0000000000    1.0041600000       2
     3285  3287  3289  3298    1  180.0000000000    1.0041600000       2
     3288  3287  3289  3290    1  0.0000000000      0.0000000000       1
     3288  3287  3289  3298    1  0.0000000000      0.0000000000       1
     3303  3287  3289  3290    1  180.0000000000    1.0041600000       2
     3303  3287  3289  3298    1  180.0000000000    1.0041600000       2
     3285  3287  3303  3290    1  0.0000000000      0.6508444444       3
     3285  3287  3303  3304    1  0.0000000000      0.6508444444       3
     3285  3287  3303  3305    1  0.0000000000      0.6508444444       3
     3288  3287  3303  3290    1  0.0000000000      0.6508444444       3
     3288  3287  3303  3304    1  0.0000000000      0.6508444444       3
     3288  3287  3303  3305    1  0.0000000000      0.6508444444       3
     3289  3287  3303  3290    1  0.0000000000      0.6508444444       3
     3289  3287  3303  3304    1  0.0000000000      0.6508444444       3
     3289  3287  3303  3305    1  0.0000000000      0.6508444444       3
     3287  3303  3305  3281    1  0.0000000000      2.1756800000       3
     3287  3303  3305  3306    1  0.0000000000      0.5439200000       3
     3287  3303  3305  3307    1  0.0000000000      2.1756800000       3
     3290  3303  3305  3281    1  0.0000000000      0.6508444444       3
     3290  3303  3305  3306    1  0.0000000000      0.6508444444       3
     3290  3303  3305  3307    1  0.0000000000      0.6508444444       3
     3304  3303  3305  3281    1  0.0000000000      0.5439200000       3
     3304  3303  3305  3306    1  0.0000000000      0.5020800000       3
     3304  3303  3305  3307    1  0.0000000000      0.5439200000       3
     2919  2917  2915  2913    1  0.0000000000      2.1756800000       3
     2919  2917  2915  2916    1  0.0000000000      0.5439200000       3
     2919  2917  2915  2928    1  0.0000000000      0.6508444444       3
     2915  2917  2919  2920    1  0.0000000000      0.5439200000       3
     2915  2917  2919  2921    1  0.0000000000      2.1756800000       3
     2918  2917  2919  2920    1  0.0000000000      0.5020800000       3
     2918  2917  2919  2921    1  0.0000000000      0.5439200000       3
     2925  2917  2919  2920    1  0.0000000000      0.5439200000       3
     2925  2917  2919  2921    1  0.0000000000      2.1756800000       3
     2915  2917  2925  2923    1  0.0000000000      0.6508444444       3
     2915  2917  2925  2926    1  0.0000000000      0.6508444444       3
     2915  2917  2925  2927    1  0.0000000000      0.6508444444       3
     2918  2917  2925  2923    1  0.0000000000      0.5439200000       3
     2918  2917  2925  2926    1  0.0000000000      0.5020800000       3
     2918  2917  2925  2927    1  0.0000000000      0.5020800000       3
     2919  2917  2925  2926    1  0.0000000000      0.6508444444       3
     2919  2917  2925  2927    1  0.0000000000      0.6508444444       3
     2915  2917  2919  3228    1  0.0000000000      0.6508444444       3
     2918  2917  2919  3228    1  0.0000000000      0.6508444444       3
     2925  2917  2919  3228    1  0.0000000000      0.6508444444       3
     3283  3285  3287  3288    1  0.0000000000      0.5439200000       3
     3283  3285  3287  3289    1  0.0000000000      0.6508444444       3
     3283  3285  3287  3303    1  0.0000000000      2.1756800000       3
     3286  3285  3287  3288    1  0.0000000000      0.5020800000       3
     3286  3285  3287  3289    1  0.0000000000      0.6508444444       3
     3286  3285  3287  3303    1  0.0000000000      0.5439200000       3
     3307  3285  3287  3288    1  0.0000000000      0.5439200000       3
     3307  3285  3287  3289    1  0.0000000000      0.6508444444       3
     3307  3285  3287  3303    1  0.0000000000      2.1756800000       3
     3283  3285  3307  3305    1  0.0000000000      0.6508444444       3
     3283  3285  3307  3308    1  0.0000000000      0.6508444444       3
     3283  3285  3307  3309    1  0.0000000000      0.6508444444       3
     3286  3285  3307  3305    1  0.0000000000      0.5439200000       3
     3286  3285  3307  3308    1  0.0000000000      0.5020800000       3
     3286  3285  3307  3309    1  0.0000000000      0.5020800000       3
     3287  3285  3307  3305    1  0.0000000000      0.6508444444       3
     3287  3285  3307  3308    1  0.0000000000      0.6508444444       3
     3287  3285  3307  3309    1  0.0000000000      0.6508444444       3
     3287  3289  3290  3291    1  180.0000000000    15.1670000000      2
     3287  3289  3290  3303    1  180.0000000000    15.1670000000      2
     3298  3289  3290  3291    1  180.0000000000    15.1670000000      2
     3298  3289  3290  3303    1  180.0000000000    15.1670000000      2
     3287  3289  3298  3299    1  180.0000000000    15.1670000000      2
     3290  3289  3298  3297    1  180.0000000000    15.1670000000      2
     3290  3289  3298  3299    1  180.0000000000    15.1670000000      2
     594   596   598   599     1  180.0000000000    1.0041600000       2
     594   596   598   607     1  180.0000000000    1.0041600000       2
     597   596   598   599     1  0.0000000000      0.0000000000       1
     597   596   598   607     1  0.0000000000      0.0000000000       1
     612   596   598   599     1  180.0000000000    1.0041600000       2
     612   596   598   607     1  180.0000000000    1.0041600000       2
     594   596   612   599     1  0.0000000000      0.6508444444       3
     594   596   612   613     1  0.0000000000      0.6508444444       3
     594   596   612   614     1  0.0000000000      0.6508444444       3
     597   596   612   599     1  0.0000000000      0.6508444444       3
     597   596   612   613     1  0.0000000000      0.6508444444       3
     597   596   612   614     1  0.0000000000      0.6508444444       3
     598   596   612   599     1  0.0000000000      0.6508444444       3
     598   596   612   613     1  0.0000000000      0.6508444444       3
     598   596   612   614     1  0.0000000000      0.6508444444       3
     6116  6132  6134  6110    1  0.0000000000      2.1756800000       3
     6116  6132  6134  6135    1  0.0000000000      0.5439200000       3
     6116  6132  6134  6136    1  0.0000000000      2.1756800000       3
     6119  6132  6134  6110    1  0.0000000000      0.6508444444       3
     6119  6132  6134  6135    1  0.0000000000      0.6508444444       3
     6119  6132  6134  6136    1  0.0000000000      0.6508444444       3
     6133  6132  6134  6110    1  0.0000000000      0.5439200000       3
     6133  6132  6134  6135    1  0.0000000000      0.5020800000       3
     6133  6132  6134  6136    1  0.0000000000      0.5439200000       3
     6106  6107  6109  6110    1  180.0000000000    15.1670000000      2
     6106  6107  6109  6139    1  180.0000000000    15.1670000000      2
     6108  6107  6109  6110    1  180.0000000000    15.1670000000      2
     6108  6107  6109  6139    1  180.0000000000    15.1670000000      2
     6118  6119  6120  6121    1  180.0000000000    15.1670000000      2
     6118  6119  6120  6125    1  180.0000000000    15.1670000000      2
     6132  6119  6120  6121    1  180.0000000000    15.1670000000      2
     6118  6119  6132  6116    1  180.0000000000    1.0041600000       2
     6118  6119  6132  6133    1  0.0000000000      0.0000000000       1
     6118  6119  6132  6134    1  180.0000000000    1.0041600000       2
     6120  6119  6132  6116    1  180.0000000000    1.0041600000       2
     6120  6119  6132  6133    1  0.0000000000      0.0000000000       1
     6120  6119  6132  6134    1  180.0000000000    1.0041600000       2
     6125  6120  6119  6132    1  180.0000000000    15.1670000000      2
     6119  6120  6121  6122    1  0.0000000000      0.0000000000       2
     6119  6120  6121  6123    1  0.0000000000      0.0000000000       2
     6119  6120  6121  6124    1  0.0000000000      0.0000000000       2
     6119  6120  6125  6126    1  180.0000000000    15.1670000000      2
     6121  6120  6125  6126    1  180.0000000000    15.1670000000      2
     6119  6120  6125  1953    1  180.0000000000    15.1670000000      2
     6121  6120  6125  1953    1  180.0000000000    15.1670000000      2
     6110  6134  6136  6114    1  0.0000000000      0.6508444444       3
     6110  6134  6136  6137    1  0.0000000000      0.6508444444       3
     6110  6134  6136  6138    1  0.0000000000      0.6508444444       3
     6132  6134  6136  6114    1  0.0000000000      0.6508444444       3
     6132  6134  6136  6137    1  0.0000000000      0.6508444444       3
     6132  6134  6136  6138    1  0.0000000000      0.6508444444       3
     6135  6134  6136  6114    1  0.0000000000      0.5439200000       3
     6135  6134  6136  6137    1  0.0000000000      0.5020800000       3
     6135  6134  6136  6138    1  0.0000000000      0.5020800000       3
     6116  6118  6119  6120    1  180.0000000000    15.1670000000      2
     6116  6118  6119  6132    1  180.0000000000    15.1670000000      2
     6127  6118  6119  6120    1  180.0000000000    15.1670000000      2
     6127  6118  6119  6132    1  180.0000000000    15.1670000000      2
     6116  6118  6127  6128    1  180.0000000000    15.1670000000      2
     6119  6118  6127  6126    1  180.0000000000    15.1670000000      2
     6119  6118  6127  6128    1  180.0000000000    15.1670000000      2
     6107  6109  6110  6111    1  0.0000000000      0.0000000000       1
     6107  6109  6110  6112    1  180.0000000000    1.0041600000       2
     6107  6109  6110  6134    1  180.0000000000    1.0041600000       2
     6139  6109  6110  6111    1  0.0000000000      0.0000000000       1
     6139  6109  6110  6112    1  180.0000000000    1.0041600000       2
     6139  6109  6110  6134    1  180.0000000000    1.0041600000       2
     6107  6109  6139  6112    1  180.0000000000    15.1670000000      2
     6107  6109  6139  6140    1  180.0000000000    15.1670000000      2
     6110  6109  6139  6112    1  180.0000000000    15.1670000000      2
     6110  6109  6139  6140    1  180.0000000000    15.1670000000      2
     6109  6110  6112  6113    1  0.0000000000      0.6508444444       3
     6109  6110  6112  6114    1  0.0000000000      0.6508444444       3
     6109  6110  6112  6139    1  0.0000000000      0.6508444444       3
     6111  6110  6112  6113    1  0.0000000000      0.6508444444       3
     6111  6110  6112  6114    1  0.0000000000      0.6508444444       3
     6111  6110  6112  6139    1  0.0000000000      0.6508444444       3
     6134  6110  6112  6113    1  0.0000000000      0.6508444444       3
     6134  6110  6112  6114    1  0.0000000000      0.6508444444       3
     6134  6110  6112  6139    1  0.0000000000      0.6508444444       3
     6109  6110  6134  6132    1  0.0000000000      0.6508444444       3
     6109  6110  6134  6135    1  0.0000000000      0.6508444444       3
     6109  6110  6134  6136    1  0.0000000000      0.6508444444       3
     6111  6110  6134  6132    1  0.0000000000      0.5439200000       3
     6111  6110  6134  6135    1  0.0000000000      0.5020800000       3
     6111  6110  6134  6136    1  0.0000000000      0.5439200000       3
     6112  6110  6134  6132    1  0.0000000000      2.1756800000       3
     6112  6110  6134  6135    1  0.0000000000      0.5439200000       3
     6112  6110  6134  6136    1  0.0000000000      2.1756800000       3
     6114  6116  6118  6119    1  180.0000000000    1.0041600000       2
     6114  6116  6118  6127    1  180.0000000000    1.0041600000       2
     6117  6116  6118  6119    1  0.0000000000      0.0000000000       1
     6117  6116  6118  6127    1  0.0000000000      0.0000000000       1
     6132  6116  6118  6119    1  180.0000000000    1.0041600000       2
     6132  6116  6118  6127    1  180.0000000000    1.0041600000       2
     6114  6116  6132  6119    1  0.0000000000      0.6508444444       3
     6114  6116  6132  6133    1  0.0000000000      0.6508444444       3
     6114  6116  6132  6134    1  0.0000000000      0.6508444444       3
     6117  6116  6132  6119    1  0.0000000000      0.6508444444       3
     6117  6116  6132  6133    1  0.0000000000      0.6508444444       3
     6117  6116  6132  6134    1  0.0000000000      0.6508444444       3
     6118  6116  6132  6119    1  0.0000000000      0.6508444444       3
     6118  6116  6132  6133    1  0.0000000000      0.6508444444       3
     6118  6116  6132  6134    1  0.0000000000      0.6508444444       3
     6126  6127  6118  6116    1  180.0000000000    15.1670000000      2
     6128  6127  6126  6125    1  180.0000000000    15.1670000000      2
     6118  6127  6128  6129    1  0.0000000000      0.0000000000       2
     6118  6127  6128  6130    1  0.0000000000      0.0000000000       2
     6118  6127  6128  6131    1  0.0000000000      0.0000000000       2
     6118  6127  6126  1955    1  180.0000000000    15.1670000000      2
     6128  6127  6126  1955    1  180.0000000000    15.1670000000      2
     6083  6105  6106  6077    1  180.0000000000    15.1670000000      2
     6083  6105  6106  6107    1  180.0000000000    15.1670000000      2
     6140  6105  6106  6077    1  180.0000000000    15.1670000000      2
     6140  6105  6106  6107    1  180.0000000000    15.1670000000      2
     6083  6105  6140  6139    1  180.0000000000    15.1670000000      2
     6083  6105  6140  6141    1  180.0000000000    15.1670000000      2
     6106  6105  6140  6139    1  180.0000000000    15.1670000000      2
     6106  6105  6140  6141    1  180.0000000000    15.1670000000      2
     6109  6139  6140  6105    1  180.0000000000    15.1670000000      2
     6109  6139  6140  6141    1  180.0000000000    15.1670000000      2
     6112  6139  6140  6105    1  180.0000000000    15.1670000000      2
     6112  6139  6140  6141    1  180.0000000000    15.1670000000      2
     6129  6128  6127  6126    1  0.0000000000      0.0000000000       2
     6130  6128  6127  6126    1  0.0000000000      0.0000000000       2
     6131  6128  6127  6126    1  0.0000000000      0.0000000000       2
     6110  6112  6114  6115    1  0.0000000000      0.5439200000       3
     6110  6112  6114  6116    1  0.0000000000      2.1756800000       3
     6110  6112  6114  6136    1  0.0000000000      2.1756800000       3
     6113  6112  6114  6115    1  0.0000000000      0.5020800000       3
     6113  6112  6114  6116    1  0.0000000000      0.5439200000       3
     6113  6112  6114  6136    1  0.0000000000      0.5439200000       3
     6139  6112  6114  6115    1  0.0000000000      0.6508444444       3
     6139  6112  6114  6116    1  0.0000000000      0.6508444444       3
     6139  6112  6114  6136    1  0.0000000000      0.6508444444       3
     6110  6112  6139  6109    1  180.0000000000    1.0041600000       2
     6110  6112  6139  6140    1  180.0000000000    1.0041600000       2
     6113  6112  6139  6109    1  0.0000000000      0.0000000000       1
     6113  6112  6139  6140    1  0.0000000000      0.0000000000       1
     6114  6112  6139  6109    1  180.0000000000    1.0041600000       2
     6114  6112  6139  6140    1  180.0000000000    1.0041600000       2
     6112  6114  6116  6117    1  0.0000000000      0.5439200000       3
     6112  6114  6116  6118    1  0.0000000000      0.6508444444       3
     6112  6114  6116  6132    1  0.0000000000      2.1756800000       3
     6115  6114  6116  6117    1  0.0000000000      0.5020800000       3
     6115  6114  6116  6118    1  0.0000000000      0.6508444444       3
     6115  6114  6116  6132    1  0.0000000000      0.5439200000       3
     6136  6114  6116  6117    1  0.0000000000      0.5439200000       3
     6136  6114  6116  6118    1  0.0000000000      0.6508444444       3
     6136  6114  6116  6132    1  0.0000000000      2.1756800000       3
     6112  6114  6136  6134    1  0.0000000000      0.6508444444       3
     6112  6114  6136  6137    1  0.0000000000      0.6508444444       3
     6112  6114  6136  6138    1  0.0000000000      0.6508444444       3
     6115  6114  6136  6134    1  0.0000000000      0.5439200000       3
     6115  6114  6136  6137    1  0.0000000000      0.5020800000       3
     6115  6114  6136  6138    1  0.0000000000      0.5020800000       3
     6116  6114  6136  6134    1  0.0000000000      0.6508444444       3
     6116  6114  6136  6137    1  0.0000000000      0.6508444444       3
     6116  6114  6136  6138    1  0.0000000000      0.6508444444       3
     3038  3037  3041  3042    1  0.0000000000      0.5439200000       3
     3038  3037  3041  3046    1  0.0000000000      0.6508444444       3
     3038  3037  3041  3070    1  0.0000000000      0.6508444444       3
     3039  3037  3041  3042    1  0.0000000000      0.5439200000       3
     3039  3037  3041  3046    1  0.0000000000      0.6508444444       3
     3039  3037  3041  3070    1  0.0000000000      0.6508444444       3
     3040  3037  3041  3042    1  0.0000000000      0.5439200000       3
     3040  3037  3041  3046    1  0.0000000000      0.6508444444       3
     3040  3037  3041  3070    1  0.0000000000      0.6508444444       3
     3257  3273  3274  3253    1  180.0000000000    15.1670000000      2
     3257  3273  3274  3275    1  180.0000000000    15.1670000000      2
     3260  3273  3274  3253    1  180.0000000000    15.1670000000      2
     3260  3273  3274  3275    1  180.0000000000    15.1670000000      2
     3248  3253  3254  3255    1  180.0000000000    15.1670000000      2
     3248  3253  3254  3276    1  180.0000000000    15.1670000000      2
     3274  3253  3254  3255    1  180.0000000000    15.1670000000      2
     3274  3253  3254  3276    1  180.0000000000    15.1670000000      2
     3248  3253  3274  3273    1  180.0000000000    15.1670000000      2
     3248  3253  3274  3275    1  180.0000000000    15.1670000000      2
     3254  3253  3274  3273    1  180.0000000000    15.1670000000      2
     3254  3253  3274  3275    1  180.0000000000    15.1670000000      2
     6077  6106  6107  6108    1  180.0000000000    15.1670000000      2
     6077  6106  6107  6109    1  180.0000000000    15.1670000000      2
     6105  6106  6107  6108    1  180.0000000000    15.1670000000      2
     6105  6106  6107  6109    1  180.0000000000    15.1670000000      2
     6120  6125  6126  6127    1  180.0000000000    15.1670000000      2
     6120  6125  6126  1955    1  180.0000000000    15.1670000000      2
     6120  6125  1953  1951    1  180.0000000000    1.0041600000       2
     6126  6125  1953  1951    1  180.0000000000    1.0041600000       2
     6120  6125  1953  1954    1  0.0000000000      0.0000000000       1
     6126  6125  1953  1954    1  0.0000000000      0.0000000000       1
     6120  6125  1953  1955    1  180.0000000000    1.0041600000       2
     6126  6125  1953  1955    1  180.0000000000    1.0041600000       2
     6125  6126  6127  6118    1  180.0000000000    15.1670000000      2
     1955  6126  6125  1953    1  180.0000000000    15.1670000000      2
     6125  6126  1955  1953    1  180.0000000000    1.0041600000       2
     6127  6126  1955  1953    1  180.0000000000    1.0041600000       2
     6125  6126  1955  1956    1  0.0000000000      0.0000000000       1
     6127  6126  1955  1956    1  0.0000000000      0.0000000000       1
     6125  6126  1955  1957    1  180.0000000000    1.0041600000       2
     6127  6126  1955  1957    1  180.0000000000    1.0041600000       2
     6127  6126  6125  1953    1  180.0000000000    15.1670000000      2
     6083  6084  6086  6087    1  180.0000000000    15.1670000000      2
     6083  6084  6086  6102    1  180.0000000000    15.1670000000      2
     6085  6084  6086  6087    1  180.0000000000    15.1670000000      2
     6085  6084  6086  6102    1  180.0000000000    15.1670000000      2
     6082  6083  6084  6085    1  180.0000000000    15.1670000000      2
     6082  6083  6084  6086    1  180.0000000000    15.1670000000      2
     6105  6083  6084  6085    1  180.0000000000    15.1670000000      2
     6105  6083  6084  6086    1  180.0000000000    15.1670000000      2
     6082  6083  6105  6106    1  180.0000000000    4.1840000000       2
     6082  6083  6105  6140    1  180.0000000000    4.1840000000       2
     6084  6083  6105  6106    1  180.0000000000    4.1840000000       2
     6084  6083  6105  6140    1  180.0000000000    4.1840000000       2
     3253  3254  3255  3256    1  180.0000000000    15.1670000000      2
     3253  3254  3255  3257    1  180.0000000000    15.1670000000      2
     3276  3254  3255  3256    1  180.0000000000    15.1670000000      2
     3276  3254  3255  3257    1  180.0000000000    15.1670000000      2
     3253  3254  3276  3277    1  180.0000000000    4.1840000000       2
     3253  3254  3276  3311    1  180.0000000000    4.1840000000       2
     3255  3254  3276  3277    1  180.0000000000    4.1840000000       2
     3255  3254  3276  3311    1  180.0000000000    4.1840000000       2
     6122  6121  6120  6125    1  0.0000000000      0.0000000000       2
     6123  6121  6120  6125    1  0.0000000000      0.0000000000       2
     6124  6121  6120  6125    1  0.0000000000      0.0000000000       2
     2798  2800  2802  2803    1  0.0000000000      0.5439200000       3
     2798  2800  2802  2804    1  0.0000000000      2.1756800000       3
     2798  2800  2802  2824    1  0.0000000000      2.1756800000       3
     2801  2800  2802  2803    1  0.0000000000      0.5020800000       3
     2801  2800  2802  2804    1  0.0000000000      0.5439200000       3
     2801  2800  2802  2824    1  0.0000000000      0.5439200000       3
     2827  2800  2802  2803    1  0.0000000000      0.6508444444       3
     2827  2800  2802  2804    1  0.0000000000      0.6508444444       3
     2827  2800  2802  2824    1  0.0000000000      0.6508444444       3
     2798  2800  2827  2797    1  180.0000000000    1.0041600000       2
     2798  2800  2827  2828    1  180.0000000000    1.0041600000       2
     2801  2800  2827  2797    1  0.0000000000      0.0000000000       1
     2801  2800  2827  2828    1  0.0000000000      0.0000000000       1
     2802  2800  2827  2797    1  180.0000000000    1.0041600000       2
     2802  2800  2827  2828    1  180.0000000000    1.0041600000       2
     1535  1537  1539  1540    1  0.0000000000      0.5439200000       3
     1535  1537  1539  1541    1  0.0000000000      2.1756800000       3
     1538  1537  1539  1540    1  0.0000000000      0.5020800000       3
     1538  1537  1539  1541    1  0.0000000000      0.5439200000       3
     1545  1537  1539  1540    1  0.0000000000      0.5439200000       3
     1545  1537  1539  1541    1  0.0000000000      2.1756800000       3
     1535  1537  1545  1543    1  0.0000000000      0.6508444444       3
     1535  1537  1545  1546    1  0.0000000000      0.6508444444       3
     1535  1537  1545  1547    1  0.0000000000      0.6508444444       3
     1538  1537  1545  1543    1  0.0000000000      0.5439200000       3
     1538  1537  1545  1546    1  0.0000000000      0.5020800000       3
     1538  1537  1545  1547    1  0.0000000000      0.5020800000       3
     1539  1537  1545  1546    1  0.0000000000      0.6508444444       3
     1539  1537  1545  1547    1  0.0000000000      0.6508444444       3
     1539  1537  1535  1533    1  0.0000000000      2.1756800000       3
     1539  1537  1535  1536    1  0.0000000000      0.5439200000       3
     1539  1537  1535  1548    1  0.0000000000      0.6508444444       3
     1538  1537  1539  5228    1  0.0000000000      0.6508444444       3
     1545  1537  1539  5228    1  0.0000000000      0.6508444444       3
     1535  1537  1539  5228    1  0.0000000000      0.6508444444       3
     3255  3257  3258  3259    1  0.0000000000      0.0000000000       1
     3255  3257  3258  3260    1  180.0000000000    1.0041600000       2
     3255  3257  3258  3268    1  180.0000000000    1.0041600000       2
     3273  3257  3258  3259    1  0.0000000000      0.0000000000       1
     3273  3257  3258  3260    1  180.0000000000    1.0041600000       2
     3273  3257  3258  3268    1  180.0000000000    1.0041600000       2
     3255  3257  3273  3260    1  180.0000000000    15.1670000000      2
     3255  3257  3273  3274    1  180.0000000000    15.1670000000      2
     3258  3257  3273  3260    1  180.0000000000    15.1670000000      2
     3258  3257  3273  3274    1  180.0000000000    15.1670000000      2
     3254  3255  3257  3258    1  180.0000000000    15.1670000000      2
     3254  3255  3257  3273    1  180.0000000000    15.1670000000      2
     3256  3255  3257  3258    1  180.0000000000    15.1670000000      2
     3256  3255  3257  3273    1  180.0000000000    15.1670000000      2
     1951  1953  1955  1956    1  0.0000000000      0.6508444444       3
     1951  1953  1955  1957    1  0.0000000000      0.6508444444       3
     1954  1953  1955  1956    1  0.0000000000      0.6508444444       3
     1951  1953  1955  6126    1  0.0000000000      0.6508444444       3
     6125  1953  1955  1956    1  0.0000000000      0.6508444444       3
     5228  5223  5222  5235    1  180.0000000000    15.1670000000      2
     5222  5223  5224  5225    1  0.0000000000      0.0000000000       2
     5222  5223  5224  5226    1  0.0000000000      0.0000000000       2
     5222  5223  5224  5227    1  0.0000000000      0.0000000000       2
     5222  5223  5228  5229    1  180.0000000000    15.1670000000      2
     5224  5223  5228  5229    1  180.0000000000    15.1670000000      2
     5222  5223  5228  1539    1  180.0000000000    15.1670000000      2
     5224  5223  5228  1539    1  180.0000000000    15.1670000000      2
     5209  5210  5212  5213    1  180.0000000000    15.1670000000      2
     5209  5210  5212  5242    1  180.0000000000    15.1670000000      2
     5211  5210  5212  5213    1  180.0000000000    15.1670000000      2
     5211  5210  5212  5242    1  180.0000000000    15.1670000000      2
     5225  5224  5223  5228    1  0.0000000000      0.0000000000       2
     5226  5224  5223  5228    1  0.0000000000      0.0000000000       2
     5227  5224  5223  5228    1  0.0000000000      0.0000000000       2
     5212  5213  5215  5216    1  0.0000000000      0.6508444444       3
     5212  5213  5215  5217    1  0.0000000000      0.6508444444       3
     5212  5213  5215  5242    1  0.0000000000      0.6508444444       3
     5214  5213  5215  5216    1  0.0000000000      0.6508444444       3
     5214  5213  5215  5217    1  0.0000000000      0.6508444444       3
     5214  5213  5215  5242    1  0.0000000000      0.6508444444       3
     5237  5213  5215  5216    1  0.0000000000      0.6508444444       3
     5237  5213  5215  5217    1  0.0000000000      0.6508444444       3
     5237  5213  5215  5242    1  0.0000000000      0.6508444444       3
     5212  5213  5237  5235    1  0.0000000000      0.6508444444       3
     5212  5213  5237  5238    1  0.0000000000      0.6508444444       3
     5212  5213  5237  5239    1  0.0000000000      0.6508444444       3
     5214  5213  5237  5235    1  0.0000000000      0.5439200000       3
     5214  5213  5237  5238    1  0.0000000000      0.5020800000       3
     5214  5213  5237  5239    1  0.0000000000      0.5439200000       3
     5215  5213  5237  5235    1  0.0000000000      2.1756800000       3
     5215  5213  5237  5238    1  0.0000000000      0.5439200000       3
     5215  5213  5237  5239    1  0.0000000000      2.1756800000       3
     5219  5235  5237  5213    1  0.0000000000      2.1756800000       3
     5219  5235  5237  5238    1  0.0000000000      0.5439200000       3
     5219  5235  5237  5239    1  0.0000000000      2.1756800000       3
     5222  5235  5237  5213    1  0.0000000000      0.6508444444       3
     5222  5235  5237  5238    1  0.0000000000      0.6508444444       3
     5222  5235  5237  5239    1  0.0000000000      0.6508444444       3
     5236  5235  5237  5213    1  0.0000000000      0.5439200000       3
     5236  5235  5237  5238    1  0.0000000000      0.5020800000       3
     5236  5235  5237  5239    1  0.0000000000      0.5439200000       3
     3500  3499  3498  3503    1  0.0000000000      0.0000000000       2
     3501  3499  3498  3503    1  0.0000000000      0.0000000000       2
     3502  3499  3498  3503    1  0.0000000000      0.0000000000       2
     5213  5237  5239  5217    1  0.0000000000      0.6508444444       3
     5213  5237  5239  5240    1  0.0000000000      0.6508444444       3
     5213  5237  5239  5241    1  0.0000000000      0.6508444444       3
     5235  5237  5239  5217    1  0.0000000000      0.6508444444       3
     5235  5237  5239  5240    1  0.0000000000      0.6508444444       3
     5235  5237  5239  5241    1  0.0000000000      0.6508444444       3
     5238  5237  5239  5217    1  0.0000000000      0.5439200000       3
     5238  5237  5239  5240    1  0.0000000000      0.5020800000       3
     5238  5237  5239  5241    1  0.0000000000      0.5020800000       3
     3257  3258  3260  3261    1  0.0000000000      0.6508444444       3
     3257  3258  3260  3262    1  0.0000000000      0.6508444444       3
     3257  3258  3260  3273    1  0.0000000000      0.6508444444       3
     3259  3258  3260  3261    1  0.0000000000      0.6508444444       3
     3259  3258  3260  3262    1  0.0000000000      0.6508444444       3
     3259  3258  3260  3273    1  0.0000000000      0.6508444444       3
     3268  3258  3260  3261    1  0.0000000000      0.6508444444       3
     3268  3258  3260  3262    1  0.0000000000      0.6508444444       3
     3268  3258  3260  3273    1  0.0000000000      0.6508444444       3
     3257  3258  3268  3269    1  0.0000000000      0.6508444444       3
     3257  3258  3268  3270    1  0.0000000000      0.6508444444       3
     3259  3258  3268  3269    1  0.0000000000      0.5020800000       3
     3259  3258  3268  3270    1  0.0000000000      0.5439200000       3
     3260  3258  3268  3269    1  0.0000000000      0.5439200000       3
     3260  3258  3268  3270    1  0.0000000000      2.1756800000       3
     3266  3268  3258  3257    1  0.0000000000      0.6508444444       3
     3266  3268  3258  3259    1  0.0000000000      0.5439200000       3
     3266  3268  3258  3260    1  0.0000000000      2.1756800000       3
     3258  3268  3266  3264    1  0.0000000000      2.1756800000       3
     3269  3268  3266  3264    1  0.0000000000      0.5439200000       3
     3270  3268  3266  3264    1  0.0000000000      2.1756800000       3
     3258  3268  3266  3267    1  0.0000000000      0.5439200000       3
     3269  3268  3266  3267    1  0.0000000000      0.5020800000       3
     3270  3268  3266  3267    1  0.0000000000      0.5439200000       3
     3258  3268  3270  3262    1  0.0000000000      0.6508444444       3
     3258  3268  3270  3271    1  0.0000000000      0.6508444444       3
     3258  3268  3270  3272    1  0.0000000000      0.6508444444       3
     3266  3268  3270  3271    1  0.0000000000      0.6508444444       3
     3266  3268  3270  3272    1  0.0000000000      0.6508444444       3
     3269  3268  3270  3262    1  0.0000000000      0.5439200000       3
     3269  3268  3270  3271    1  0.0000000000      0.5020800000       3
     3269  3268  3270  3272    1  0.0000000000      0.5020800000       3
     3258  3268  3266  2331    1  0.0000000000      0.6508444444       3
     3269  3268  3266  2331    1  0.0000000000      0.6508444444       3
     3270  3268  3266  2331    1  0.0000000000      0.6508444444       3
     467   462   461   474     1  180.0000000000    15.1670000000      2
     461   462   463   464     1  0.0000000000      0.0000000000       2
     461   462   463   465     1  0.0000000000      0.0000000000       2
     461   462   463   466     1  0.0000000000      0.0000000000       2
     461   462   467   468     1  180.0000000000    15.1670000000      2
     463   462   467   468     1  180.0000000000    15.1670000000      2
     461   462   467   2576    1  180.0000000000    15.1670000000      2
     463   462   467   2576    1  180.0000000000    15.1670000000      2
     464   463   462   467     1  0.0000000000      0.0000000000       2
     465   463   462   467     1  0.0000000000      0.0000000000       2
     466   463   462   467     1  0.0000000000      0.0000000000       2
     460   461   462   463     1  180.0000000000    15.1670000000      2
     460   461   462   467     1  180.0000000000    15.1670000000      2
     474   461   462   463     1  180.0000000000    15.1670000000      2
     460   461   474   458     1  180.0000000000    1.0041600000       2
     460   461   474   475     1  0.0000000000      0.0000000000       1
     460   461   474   476     1  180.0000000000    1.0041600000       2
     462   461   474   458     1  180.0000000000    1.0041600000       2
     462   461   474   475     1  0.0000000000      0.0000000000       1
     462   461   474   476     1  180.0000000000    1.0041600000       2
     462   467   468   469     1  180.0000000000    15.1670000000      2
     462   467   468   2574    1  180.0000000000    15.1670000000      2
     462   467   2576  2574    1  180.0000000000    1.0041600000       2
     468   467   2576  2574    1  180.0000000000    1.0041600000       2
     462   467   2576  2577    1  0.0000000000      0.0000000000       1
     468   467   2576  2577    1  0.0000000000      0.0000000000       1
     462   467   2576  2578    1  180.0000000000    1.0041600000       2
     468   467   2576  2578    1  180.0000000000    1.0041600000       2
     458   474   476   452     1  0.0000000000      2.1756800000       3
     458   474   476   477     1  0.0000000000      0.5439200000       3
     458   474   476   478     1  0.0000000000      2.1756800000       3
     461   474   476   452     1  0.0000000000      0.6508444444       3
     461   474   476   477     1  0.0000000000      0.6508444444       3
     461   474   476   478     1  0.0000000000      0.6508444444       3
     475   474   476   452     1  0.0000000000      0.5439200000       3
     475   474   476   477     1  0.0000000000      0.5020800000       3
     475   474   476   478     1  0.0000000000      0.5439200000       3
     458   460   461   462     1  180.0000000000    15.1670000000      2
     458   460   461   474     1  180.0000000000    15.1670000000      2
     469   460   461   462     1  180.0000000000    15.1670000000      2
     469   460   461   474     1  180.0000000000    15.1670000000      2
     458   460   469   470     1  180.0000000000    15.1670000000      2
     461   460   469   468     1  180.0000000000    15.1670000000      2
     461   460   469   470     1  180.0000000000    15.1670000000      2
     452   476   478   456     1  0.0000000000      0.6508444444       3
     452   476   478   479     1  0.0000000000      0.6508444444       3
     452   476   478   480     1  0.0000000000      0.6508444444       3
     474   476   478   456     1  0.0000000000      0.6508444444       3
     474   476   478   479     1  0.0000000000      0.6508444444       3
     474   476   478   480     1  0.0000000000      0.6508444444       3
     477   476   478   456     1  0.0000000000      0.5439200000       3
     477   476   478   479     1  0.0000000000      0.5020800000       3
     477   476   478   480     1  0.0000000000      0.5020800000       3
     451   452   454   455     1  0.0000000000      0.6508444444       3
     451   452   454   456     1  0.0000000000      0.6508444444       3
     451   452   454   481     1  0.0000000000      0.6508444444       3
     453   452   454   455     1  0.0000000000      0.6508444444       3
     453   452   454   456     1  0.0000000000      0.6508444444       3
     453   452   454   481     1  0.0000000000      0.6508444444       3
     476   452   454   455     1  0.0000000000      0.6508444444       3
     476   452   454   456     1  0.0000000000      0.6508444444       3
     476   452   454   481     1  0.0000000000      0.6508444444       3
     451   452   476   474     1  0.0000000000      0.6508444444       3
     451   452   476   477     1  0.0000000000      0.6508444444       3
     451   452   476   478     1  0.0000000000      0.6508444444       3
     453   452   476   474     1  0.0000000000      0.5439200000       3
     453   452   476   477     1  0.0000000000      0.5020800000       3
     453   452   476   478     1  0.0000000000      0.5439200000       3
     454   452   476   474     1  0.0000000000      2.1756800000       3
     454   452   476   477     1  0.0000000000      0.5439200000       3
     454   452   476   478     1  0.0000000000      2.1756800000       3
     456   458   460   461     1  180.0000000000    1.0041600000       2
     456   458   460   469     1  180.0000000000    1.0041600000       2
     459   458   460   461     1  0.0000000000      0.0000000000       1
     459   458   460   469     1  0.0000000000      0.0000000000       1
     474   458   460   461     1  180.0000000000    1.0041600000       2
     474   458   460   469     1  180.0000000000    1.0041600000       2
     456   458   474   461     1  0.0000000000      0.6508444444       3
     456   458   474   475     1  0.0000000000      0.6508444444       3
     456   458   474   476     1  0.0000000000      0.6508444444       3
     459   458   474   461     1  0.0000000000      0.6508444444       3
     459   458   474   475     1  0.0000000000      0.6508444444       3
     459   458   474   476     1  0.0000000000      0.6508444444       3
     460   458   474   461     1  0.0000000000      0.6508444444       3
     460   458   474   475     1  0.0000000000      0.6508444444       3
     460   458   474   476     1  0.0000000000      0.6508444444       3
     3070  3071  3073  3074    1  180.0000000000    15.1670000000      2
     3070  3071  3073  3103    1  180.0000000000    15.1670000000      2
     3072  3071  3073  3074    1  180.0000000000    15.1670000000      2
     3072  3071  3073  3103    1  180.0000000000    15.1670000000      2
     3073  3103  3104  3069    1  180.0000000000    15.1670000000      2
     3073  3103  3104  3105    1  180.0000000000    15.1670000000      2
     3076  3103  3104  3069    1  180.0000000000    15.1670000000      2
     3076  3103  3104  3105    1  180.0000000000    15.1670000000      2
     468   469   460   458     1  180.0000000000    15.1670000000      2
     470   469   468   467     1  180.0000000000    15.1670000000      2
     460   469   470   471     1  0.0000000000      0.0000000000       2
     460   469   470   472     1  0.0000000000      0.0000000000       2
     460   469   470   473     1  0.0000000000      0.0000000000       2
     460   469   468   2574    1  180.0000000000    15.1670000000      2
     470   469   468   2574    1  180.0000000000    15.1670000000      2
     451   481   482   447     1  180.0000000000    15.1670000000      2
     451   481   482   483     1  180.0000000000    15.1670000000      2
     454   481   482   447     1  180.0000000000    15.1670000000      2
     454   481   482   483     1  180.0000000000    15.1670000000      2
     449   451   452   453     1  0.0000000000      0.0000000000       1
     449   451   452   454     1  180.0000000000    1.0041600000       2
     449   451   452   476     1  180.0000000000    1.0041600000       2
     481   451   452   453     1  0.0000000000      0.0000000000       1
     481   451   452   454     1  180.0000000000    1.0041600000       2
     481   451   452   476     1  180.0000000000    1.0041600000       2
     449   451   481   454     1  180.0000000000    15.1670000000      2
     449   451   481   482     1  180.0000000000    15.1670000000      2
     452   451   481   454     1  180.0000000000    15.1670000000      2
     452   451   481   482     1  180.0000000000    15.1670000000      2
     3071  3073  3074  3075    1  0.0000000000      0.0000000000       1
     3071  3073  3074  3076    1  180.0000000000    1.0041600000       2
     3071  3073  3074  3098    1  180.0000000000    1.0041600000       2
     3103  3073  3074  3075    1  0.0000000000      0.0000000000       1
     3103  3073  3074  3076    1  180.0000000000    1.0041600000       2
     3103  3073  3074  3098    1  180.0000000000    1.0041600000       2
     3071  3073  3103  3076    1  180.0000000000    15.1670000000      2
     3071  3073  3103  3104    1  180.0000000000    15.1670000000      2
     3074  3073  3103  3076    1  180.0000000000    15.1670000000      2
     3074  3073  3103  3104    1  180.0000000000    15.1670000000      2
     3061  3063  3055  3057    1  0.0000000000      0.6508444444       3
     3055  3063  3061  3059    1  0.0000000000      0.6508444444       3
     3041  3070  3071  3072    1  180.0000000000    15.1670000000      2
     3041  3070  3071  3073    1  180.0000000000    15.1670000000      2
     3069  3070  3071  3072    1  180.0000000000    15.1670000000      2
     3069  3070  3071  3073    1  180.0000000000    15.1670000000      2
     3047  3069  3070  3041    1  180.0000000000    15.1670000000      2
     3047  3069  3070  3071    1  180.0000000000    15.1670000000      2
     3104  3069  3070  3041    1  180.0000000000    15.1670000000      2
     3104  3069  3070  3071    1  180.0000000000    15.1670000000      2
     3047  3069  3104  3103    1  180.0000000000    15.1670000000      2
     3047  3069  3104  3105    1  180.0000000000    15.1670000000      2
     3070  3069  3104  3103    1  180.0000000000    15.1670000000      2
     3070  3069  3104  3105    1  180.0000000000    15.1670000000      2
     3074  3076  3078  3079    1  0.0000000000      0.5439200000       3
     3074  3076  3078  3080    1  0.0000000000      2.1756800000       3
     3074  3076  3078  3100    1  0.0000000000      2.1756800000       3
     3077  3076  3078  3079    1  0.0000000000      0.5020800000       3
     3077  3076  3078  3080    1  0.0000000000      0.5439200000       3
     3077  3076  3078  3100    1  0.0000000000      0.5439200000       3
     3103  3076  3078  3079    1  0.0000000000      0.6508444444       3
     3103  3076  3078  3080    1  0.0000000000      0.6508444444       3
     3103  3076  3078  3100    1  0.0000000000      0.6508444444       3
     3074  3076  3103  3073    1  180.0000000000    1.0041600000       2
     3074  3076  3103  3104    1  180.0000000000    1.0041600000       2
     3077  3076  3103  3073    1  0.0000000000      0.0000000000       1
     3077  3076  3103  3104    1  0.0000000000      0.0000000000       1
     3078  3076  3103  3073    1  180.0000000000    1.0041600000       2
     3078  3076  3103  3104    1  180.0000000000    1.0041600000       2
     3329  3331  3333  3334    1  0.0000000000      0.5439200000       3
     3329  3331  3333  3335    1  0.0000000000      2.1756800000       3
     3332  3331  3333  3334    1  0.0000000000      0.5020800000       3
     3332  3331  3333  3335    1  0.0000000000      0.5439200000       3
     3339  3331  3333  3334    1  0.0000000000      0.5439200000       3
     3339  3331  3333  3335    1  0.0000000000      2.1756800000       3
     3329  3331  3339  3337    1  0.0000000000      0.6508444444       3
     3329  3331  3339  3340    1  0.0000000000      0.6508444444       3
     3329  3331  3339  3341    1  0.0000000000      0.6508444444       3
     3332  3331  3339  3337    1  0.0000000000      0.5439200000       3
     3332  3331  3339  3340    1  0.0000000000      0.5020800000       3
     3332  3331  3339  3341    1  0.0000000000      0.5020800000       3
     3333  3331  3339  3340    1  0.0000000000      0.6508444444       3
     3333  3331  3339  3341    1  0.0000000000      0.6508444444       3
     3333  3331  3329  3327    1  0.0000000000      2.1756800000       3
     3333  3331  3329  3330    1  0.0000000000      0.5439200000       3
     3333  3331  3329  3342    1  0.0000000000      0.6508444444       3
     3332  3331  3333  3158    1  0.0000000000      0.6508444444       3
     3339  3331  3333  3158    1  0.0000000000      0.6508444444       3
     3329  3331  3333  3158    1  0.0000000000      0.6508444444       3
     3047  3048  3050  3051    1  180.0000000000    15.1670000000      2
     3047  3048  3050  3066    1  180.0000000000    15.1670000000      2
     3049  3048  3050  3051    1  180.0000000000    15.1670000000      2
     3049  3048  3050  3066    1  180.0000000000    15.1670000000      2
     452   454   456   457     1  0.0000000000      0.5439200000       3
     452   454   456   458     1  0.0000000000      2.1756800000       3
     452   454   456   478     1  0.0000000000      2.1756800000       3
     455   454   456   457     1  0.0000000000      0.5020800000       3
     455   454   456   458     1  0.0000000000      0.5439200000       3
     455   454   456   478     1  0.0000000000      0.5439200000       3
     481   454   456   457     1  0.0000000000      0.6508444444       3
     481   454   456   458     1  0.0000000000      0.6508444444       3
     481   454   456   478     1  0.0000000000      0.6508444444       3
     452   454   481   451     1  180.0000000000    1.0041600000       2
     452   454   481   482     1  180.0000000000    1.0041600000       2
     455   454   481   451     1  0.0000000000      0.0000000000       1
     455   454   481   482     1  0.0000000000      0.0000000000       1
     456   454   481   451     1  180.0000000000    1.0041600000       2
     456   454   481   482     1  180.0000000000    1.0041600000       2
     454   456   458   459     1  0.0000000000      0.5439200000       3
     454   456   458   460     1  0.0000000000      0.6508444444       3
     454   456   458   474     1  0.0000000000      2.1756800000       3
     457   456   458   459     1  0.0000000000      0.5020800000       3
     457   456   458   460     1  0.0000000000      0.6508444444       3
     457   456   458   474     1  0.0000000000      0.5439200000       3
     478   456   458   459     1  0.0000000000      0.5439200000       3
     478   456   458   460     1  0.0000000000      0.6508444444       3
     478   456   458   474     1  0.0000000000      2.1756800000       3
     454   456   478   476     1  0.0000000000      0.6508444444       3
     454   456   478   479     1  0.0000000000      0.6508444444       3
     454   456   478   480     1  0.0000000000      0.6508444444       3
     457   456   478   476     1  0.0000000000      0.5439200000       3
     457   456   478   479     1  0.0000000000      0.5020800000       3
     457   456   478   480     1  0.0000000000      0.5020800000       3
     458   456   478   476     1  0.0000000000      0.6508444444       3
     458   456   478   479     1  0.0000000000      0.6508444444       3
     458   456   478   480     1  0.0000000000      0.6508444444       3
     467   468   469   460     1  180.0000000000    15.1670000000      2
     2574  468   467   2576    1  180.0000000000    15.1670000000      2
     467   468   2574  2572    1  180.0000000000    1.0041600000       2
     469   468   2574  2572    1  180.0000000000    1.0041600000       2
     467   468   2574  2575    1  0.0000000000      0.0000000000       1
     469   468   2574  2575    1  0.0000000000      0.0000000000       1
     467   468   2574  2576    1  180.0000000000    1.0041600000       2
     469   468   2574  2576    1  180.0000000000    1.0041600000       2
     469   468   467   2576    1  180.0000000000    15.1670000000      2
     3048  3050  3051  3052    1  0.0000000000      0.0000000000       1
     3048  3050  3051  3053    1  180.0000000000    1.0041600000       2
     3048  3050  3051  3061    1  180.0000000000    1.0041600000       2
     3066  3050  3051  3052    1  0.0000000000      0.0000000000       1
     3066  3050  3051  3053    1  180.0000000000    1.0041600000       2
     3066  3050  3051  3061    1  180.0000000000    1.0041600000       2
     3048  3050  3066  3053    1  180.0000000000    15.1670000000      2
     3048  3050  3066  3067    1  180.0000000000    15.1670000000      2
     3051  3050  3066  3053    1  180.0000000000    15.1670000000      2
     3051  3050  3066  3067    1  180.0000000000    15.1670000000      2
     2578  2576  2574  2575    1  0.0000000000      0.6508444444       3
     2578  2576  2574  468     1  0.0000000000      0.6508444444       3
     467   2576  2574  2575    1  0.0000000000      0.6508444444       3
     3037  3041  3042  3043    1  0.0000000000      0.5439200000       3
     3037  3041  3042  3044    1  0.0000000000      0.5439200000       3
     3037  3041  3042  3045    1  0.0000000000      0.5439200000       3
     3046  3041  3042  3043    1  0.0000000000      0.6508444444       3
     3046  3041  3042  3044    1  0.0000000000      0.6508444444       3
     3046  3041  3042  3045    1  0.0000000000      0.6508444444       3
     3070  3041  3042  3043    1  0.0000000000      0.6508444444       3
     3070  3041  3042  3044    1  0.0000000000      0.6508444444       3
     3070  3041  3042  3045    1  0.0000000000      0.6508444444       3
     3037  3041  3046  3047    1  0.0000000000      0.0000000000       2
     3037  3041  3046  3067    1  180.0000000000    1.0041600000       2
     3042  3041  3046  3047    1  0.0000000000      0.0000000000       2
     3042  3041  3046  3067    1  180.0000000000    1.0041600000       2
     3070  3041  3046  3047    1  0.0000000000      0.0000000000       2
     3070  3041  3046  3067    1  180.0000000000    0.0000000000       2
     3037  3041  3070  3069    1  0.0000000000      0.0000000000       2
     3037  3041  3070  3071    1  180.0000000000    1.0041600000       2
     3042  3041  3070  3069    1  0.0000000000      0.0000000000       2
     3042  3041  3070  3071    1  180.0000000000    1.0041600000       2
     3046  3041  3070  3069    1  0.0000000000      0.0000000000       2
     3046  3041  3070  3071    1  180.0000000000    0.0000000000       2
     3327  3329  3331  3332    1  0.0000000000      0.5439200000       3
     3327  3329  3331  3339    1  0.0000000000      2.1756800000       3
     3330  3329  3331  3332    1  0.0000000000      0.5020800000       3
     3330  3329  3331  3339    1  0.0000000000      0.5439200000       3
     3342  3329  3331  3332    1  0.0000000000      0.6508444444       3
     3342  3329  3331  3339    1  0.0000000000      0.6508444444       3
     3327  3329  3342  3326    1  180.0000000000    1.0041600000       2
     3327  3329  3342  3343    1  180.0000000000    1.0041600000       2
     3330  3329  3342  3326    1  0.0000000000      0.0000000000       1
     3330  3329  3342  3343    1  0.0000000000      0.0000000000       1
     3331  3329  3342  3326    1  180.0000000000    1.0041600000       2
     3331  3329  3342  3343    1  180.0000000000    1.0041600000       2
     3337  3339  3331  3333    1  0.0000000000      0.6508444444       3
     3331  3339  3337  3335    1  0.0000000000      0.6508444444       3
     3046  3047  3048  3049    1  180.0000000000    15.1670000000      2
     3046  3047  3048  3050    1  180.0000000000    15.1670000000      2
     3069  3047  3048  3049    1  180.0000000000    15.1670000000      2
     3069  3047  3048  3050    1  180.0000000000    15.1670000000      2
     3046  3047  3069  3070    1  180.0000000000    4.1840000000       2
     3046  3047  3069  3104    1  180.0000000000    4.1840000000       2
     3048  3047  3069  3070    1  180.0000000000    4.1840000000       2
     3048  3047  3069  3104    1  180.0000000000    4.1840000000       2
     3050  3066  3067  3046    1  180.0000000000    15.1670000000      2
     3050  3066  3067  3068    1  180.0000000000    15.1670000000      2
     3053  3066  3067  3046    1  180.0000000000    15.1670000000      2
     3053  3066  3067  3068    1  180.0000000000    15.1670000000      2
     3041  3046  3047  3048    1  180.0000000000    15.1670000000      2
     3041  3046  3047  3069    1  180.0000000000    15.1670000000      2
     3067  3046  3047  3048    1  180.0000000000    15.1670000000      2
     3067  3046  3047  3069    1  180.0000000000    15.1670000000      2
     3041  3046  3067  3066    1  180.0000000000    15.1670000000      2
     3041  3046  3067  3068    1  180.0000000000    15.1670000000      2
     3047  3046  3067  3066    1  180.0000000000    15.1670000000      2
     3047  3046  3067  3068    1  180.0000000000    15.1670000000      2
     3335  3337  3327  3326    1  0.0000000000      0.6508444444       3
     3335  3337  3327  3328    1  0.0000000000      0.5439200000       3
     3335  3337  3327  3329    1  0.0000000000      2.1756800000       3
     3327  3337  3339  3331    1  0.0000000000      0.6508444444       3
     3327  3337  3339  3340    1  0.0000000000      0.6508444444       3
     3327  3337  3339  3341    1  0.0000000000      0.6508444444       3
     3335  3337  3339  3340    1  0.0000000000      0.6508444444       3
     3335  3337  3339  3341    1  0.0000000000      0.6508444444       3
     3338  3337  3339  3331    1  0.0000000000      0.5439200000       3
     3338  3337  3339  3340    1  0.0000000000      0.5020800000       3
     3338  3337  3339  3341    1  0.0000000000      0.5020800000       3
     3327  3337  3335  3333    1  0.0000000000      2.1756800000       3
     3338  3337  3335  3333    1  0.0000000000      0.5439200000       3
     3339  3337  3335  3333    1  0.0000000000      2.1756800000       3
     3327  3337  3335  3336    1  0.0000000000      0.5439200000       3
     3338  3337  3335  3336    1  0.0000000000      0.5020800000       3
     3339  3337  3335  3336    1  0.0000000000      0.5439200000       3
     3327  3337  3335  3159    1  0.0000000000      0.6508444444       3
     3338  3337  3335  3159    1  0.0000000000      0.6508444444       3
     3339  3337  3335  3159    1  0.0000000000      0.6508444444       3
     3130  3128  3126  3127    1  0.0000000000      0.6508444444       3
     3130  3128  3126  1364    1  0.0000000000      0.6508444444       3
     1365  3128  3126  3127    1  0.0000000000      0.6508444444       3
     3110  3115  3116  3117    1  180.0000000000    15.1670000000      2
     3110  3115  3116  3138    1  180.0000000000    15.1670000000      2
     3136  3115  3116  3117    1  180.0000000000    15.1670000000      2
     3136  3115  3116  3138    1  180.0000000000    15.1670000000      2
     3110  3115  3136  3135    1  180.0000000000    15.1670000000      2
     3110  3115  3136  3137    1  180.0000000000    15.1670000000      2
     3116  3115  3136  3135    1  180.0000000000    15.1670000000      2
     3116  3115  3136  3137    1  180.0000000000    15.1670000000      2
     3314  3313  3317  3318    1  0.0000000000      0.5439200000       3
     3314  3313  3317  3322    1  0.0000000000      0.6508444444       3
     3314  3313  3317  3346    1  0.0000000000      0.6508444444       3
     3315  3313  3317  3318    1  0.0000000000      0.5439200000       3
     3315  3313  3317  3322    1  0.0000000000      0.6508444444       3
     3315  3313  3317  3346    1  0.0000000000      0.6508444444       3
     3316  3313  3317  3318    1  0.0000000000      0.5439200000       3
     3316  3313  3317  3322    1  0.0000000000      0.6508444444       3
     3316  3313  3317  3346    1  0.0000000000      0.6508444444       3
     3059  3061  3051  3050    1  0.0000000000      0.6508444444       3
     3059  3061  3051  3052    1  0.0000000000      0.5439200000       3
     3059  3061  3051  3053    1  0.0000000000      2.1756800000       3
     3051  3061  3059  3057    1  0.0000000000      2.1756800000       3
     3062  3061  3059  3057    1  0.0000000000      0.5439200000       3
     3063  3061  3059  3057    1  0.0000000000      2.1756800000       3
     3051  3061  3059  3060    1  0.0000000000      0.5439200000       3
     3062  3061  3059  3060    1  0.0000000000      0.5020800000       3
     3063  3061  3059  3060    1  0.0000000000      0.5439200000       3
     3051  3061  3063  3055    1  0.0000000000      0.6508444444       3
     3051  3061  3063  3064    1  0.0000000000      0.6508444444       3
     3051  3061  3063  3065    1  0.0000000000      0.6508444444       3
     3059  3061  3063  3064    1  0.0000000000      0.6508444444       3
     3059  3061  3063  3065    1  0.0000000000      0.6508444444       3
     3062  3061  3063  3055    1  0.0000000000      0.5439200000       3
     3062  3061  3063  3064    1  0.0000000000      0.5020800000       3
     3062  3061  3063  3065    1  0.0000000000      0.5020800000       3
     3051  3061  3059  3365    1  0.0000000000      0.6508444444       3
     3062  3061  3059  3365    1  0.0000000000      0.6508444444       3
     3063  3061  3059  3365    1  0.0000000000      0.6508444444       3
     3350  3374  3376  3354    1  0.0000000000      0.6508444444       3
     3350  3374  3376  3377    1  0.0000000000      0.6508444444       3
     3350  3374  3376  3378    1  0.0000000000      0.6508444444       3
     3372  3374  3376  3354    1  0.0000000000      0.6508444444       3
     3372  3374  3376  3377    1  0.0000000000      0.6508444444       3
     3372  3374  3376  3378    1  0.0000000000      0.6508444444       3
     3375  3374  3376  3354    1  0.0000000000      0.5439200000       3
     3375  3374  3376  3377    1  0.0000000000      0.5020800000       3
     3375  3374  3376  3378    1  0.0000000000      0.5020800000       3
     245   269   271   249     1  0.0000000000      0.6508444444       3
     245   269   271   272     1  0.0000000000      0.6508444444       3
     245   269   271   273     1  0.0000000000      0.6508444444       3
     267   269   271   249     1  0.0000000000      0.6508444444       3
     267   269   271   272     1  0.0000000000      0.6508444444       3
     267   269   271   273     1  0.0000000000      0.6508444444       3
     270   269   271   249     1  0.0000000000      0.5439200000       3
     270   269   271   272     1  0.0000000000      0.5020800000       3
     270   269   271   273     1  0.0000000000      0.5020800000       3
     3119  3135  3136  3115    1  180.0000000000    15.1670000000      2
     3119  3135  3136  3137    1  180.0000000000    15.1670000000      2
     3122  3135  3136  3115    1  180.0000000000    15.1670000000      2
     3122  3135  3136  3137    1  180.0000000000    15.1670000000      2
     3106  3110  3111  3112    1  0.0000000000      0.5439200000       3
     3106  3110  3111  3113    1  0.0000000000      0.5439200000       3
     3106  3110  3111  3114    1  0.0000000000      0.5439200000       3
     3115  3110  3111  3112    1  0.0000000000      0.6508444444       3
     3115  3110  3111  3113    1  0.0000000000      0.6508444444       3
     3115  3110  3111  3114    1  0.0000000000      0.6508444444       3
     3139  3110  3111  3112    1  0.0000000000      0.6508444444       3
     3139  3110  3111  3113    1  0.0000000000      0.6508444444       3
     3139  3110  3111  3114    1  0.0000000000      0.6508444444       3
     3106  3110  3115  3116    1  0.0000000000      0.0000000000       2
     3106  3110  3115  3136    1  180.0000000000    1.0041600000       2
     3111  3110  3115  3116    1  0.0000000000      0.0000000000       2
     3111  3110  3115  3136    1  180.0000000000    1.0041600000       2
     3139  3110  3115  3116    1  0.0000000000      0.0000000000       2
     3139  3110  3115  3136    1  180.0000000000    0.0000000000       2
     3106  3110  3139  3138    1  0.0000000000      0.0000000000       2
     3106  3110  3139  3140    1  180.0000000000    1.0041600000       2
     3111  3110  3139  3138    1  0.0000000000      0.0000000000       2
     3111  3110  3139  3140    1  180.0000000000    1.0041600000       2
     3115  3110  3139  3138    1  0.0000000000      0.0000000000       2
     3115  3110  3139  3140    1  180.0000000000    0.0000000000       2
     3358  3359  3360  3361    1  180.0000000000    15.1670000000      2
     3358  3359  3360  3365    1  180.0000000000    15.1670000000      2
     3372  3359  3360  3361    1  180.0000000000    15.1670000000      2
     3358  3359  3372  3356    1  180.0000000000    1.0041600000       2
     3358  3359  3372  3373    1  0.0000000000      0.0000000000       1
     3358  3359  3372  3374    1  180.0000000000    1.0041600000       2
     3360  3359  3372  3356    1  180.0000000000    1.0041600000       2
     3360  3359  3372  3373    1  0.0000000000      0.0000000000       1
     3360  3359  3372  3374    1  180.0000000000    1.0041600000       2
     3346  3347  3349  3350    1  180.0000000000    15.1670000000      2
     3346  3347  3349  3379    1  180.0000000000    15.1670000000      2
     3348  3347  3349  3350    1  180.0000000000    15.1670000000      2
     3348  3347  3349  3379    1  180.0000000000    15.1670000000      2
     3365  3366  3367  3358    1  180.0000000000    15.1670000000      2
     3367  3366  3365  3059    1  180.0000000000    15.1670000000      2
     3367  3366  3057  3055    1  180.0000000000    1.0041600000       2
     3365  3366  3057  3055    1  180.0000000000    1.0041600000       2
     3367  3366  3057  3058    1  0.0000000000      0.0000000000       1
     3365  3366  3057  3058    1  0.0000000000      0.0000000000       1
     3367  3366  3057  3059    1  180.0000000000    1.0041600000       2
     3365  3366  3057  3059    1  180.0000000000    1.0041600000       2
     3326  3342  3343  3322    1  180.0000000000    15.1670000000      2
     3326  3342  3343  3344    1  180.0000000000    15.1670000000      2
     3329  3342  3343  3322    1  180.0000000000    15.1670000000      2
     3329  3342  3343  3344    1  180.0000000000    15.1670000000      2
     1361  1360  1359  1364    1  0.0000000000      0.0000000000       2
     1362  1360  1359  1364    1  0.0000000000      0.0000000000       2
     1363  1360  1359  1364    1  0.0000000000      0.0000000000       2
     3050  3051  3053  3054    1  0.0000000000      0.6508444444       3
     3050  3051  3053  3055    1  0.0000000000      0.6508444444       3
     3050  3051  3053  3066    1  0.0000000000      0.6508444444       3
     3052  3051  3053  3054    1  0.0000000000      0.6508444444       3
     3052  3051  3053  3055    1  0.0000000000      0.6508444444       3
     3052  3051  3053  3066    1  0.0000000000      0.6508444444       3
     3061  3051  3053  3054    1  0.0000000000      0.6508444444       3
     3061  3051  3053  3055    1  0.0000000000      0.6508444444       3
     3061  3051  3053  3066    1  0.0000000000      0.6508444444       3
     3050  3051  3061  3062    1  0.0000000000      0.6508444444       3
     3050  3051  3061  3063    1  0.0000000000      0.6508444444       3
     3052  3051  3061  3062    1  0.0000000000      0.5020800000       3
     3052  3051  3061  3063    1  0.0000000000      0.5439200000       3
     3053  3051  3061  3062    1  0.0000000000      0.5439200000       3
     3053  3051  3061  3063    1  0.0000000000      2.1756800000       3
     3349  3379  3380  3345    1  180.0000000000    15.1670000000      2
     3349  3379  3380  3381    1  180.0000000000    15.1670000000      2
     3352  3379  3380  3345    1  180.0000000000    15.1670000000      2
     3352  3379  3380  3381    1  180.0000000000    15.1670000000      2
     3323  3345  3346  3317    1  180.0000000000    15.1670000000      2
     3323  3345  3346  3347    1  180.0000000000    15.1670000000      2
     3380  3345  3346  3317    1  180.0000000000    15.1670000000      2
     3380  3345  3346  3347    1  180.0000000000    15.1670000000      2
     3323  3345  3380  3379    1  180.0000000000    15.1670000000      2
     3323  3345  3380  3381    1  180.0000000000    15.1670000000      2
     3346  3345  3380  3379    1  180.0000000000    15.1670000000      2
     3346  3345  3380  3381    1  180.0000000000    15.1670000000      2
     3322  3323  3324  3325    1  180.0000000000    15.1670000000      2
     3322  3323  3324  3326    1  180.0000000000    15.1670000000      2
     3345  3323  3324  3325    1  180.0000000000    15.1670000000      2
     3345  3323  3324  3326    1  180.0000000000    15.1670000000      2
     3322  3323  3345  3346    1  180.0000000000    4.1840000000       2
     3322  3323  3345  3380    1  180.0000000000    4.1840000000       2
     3324  3323  3345  3346    1  180.0000000000    4.1840000000       2
     3324  3323  3345  3380    1  180.0000000000    4.1840000000       2
     3360  3365  3366  3367    1  180.0000000000    15.1670000000      2
     3059  3365  3366  3057    1  180.0000000000    15.1670000000      2
     3360  3365  3059  3060    1  0.0000000000      0.0000000000       1
     3366  3365  3059  3060    1  0.0000000000      0.0000000000       1
     3360  3365  3059  3061    1  180.0000000000    1.0041600000       2
     3366  3365  3059  3061    1  180.0000000000    1.0041600000       2
     3360  3365  3059  3057    1  180.0000000000    1.0041600000       2
     3366  3365  3059  3057    1  180.0000000000    1.0041600000       2
     3360  3365  3366  3057    1  180.0000000000    15.1670000000      2
     3055  3057  3059  3060    1  0.0000000000      0.6508444444       3
     3055  3057  3059  3061    1  0.0000000000      0.6508444444       3
     3058  3057  3059  3060    1  0.0000000000      0.6508444444       3
     3055  3057  3059  3365    1  0.0000000000      0.6508444444       3
     3366  3057  3059  3060    1  0.0000000000      0.6508444444       3
     3350  3352  3354  3355    1  0.0000000000      0.5439200000       3
     3350  3352  3354  3356    1  0.0000000000      2.1756800000       3
     3350  3352  3354  3376    1  0.0000000000      2.1756800000       3
     3353  3352  3354  3355    1  0.0000000000      0.5020800000       3
     3353  3352  3354  3356    1  0.0000000000      0.5439200000       3
     3353  3352  3354  3376    1  0.0000000000      0.5439200000       3
     3379  3352  3354  3355    1  0.0000000000      0.6508444444       3
     3379  3352  3354  3356    1  0.0000000000      0.6508444444       3
     3379  3352  3354  3376    1  0.0000000000      0.6508444444       3
     3350  3352  3379  3349    1  180.0000000000    1.0041600000       2
     3350  3352  3379  3380    1  180.0000000000    1.0041600000       2
     3353  3352  3379  3349    1  0.0000000000      0.0000000000       1
     3353  3352  3379  3380    1  0.0000000000      0.0000000000       1
     3354  3352  3379  3349    1  180.0000000000    1.0041600000       2
     3354  3352  3379  3380    1  180.0000000000    1.0041600000       2
     3324  3326  3327  3328    1  0.0000000000      0.0000000000       1
     3324  3326  3327  3329    1  180.0000000000    1.0041600000       2
     3324  3326  3327  3337    1  180.0000000000    1.0041600000       2
     3342  3326  3327  3328    1  0.0000000000      0.0000000000       1
     3342  3326  3327  3329    1  180.0000000000    1.0041600000       2
     3342  3326  3327  3337    1  180.0000000000    1.0041600000       2
     3324  3326  3342  3329    1  180.0000000000    15.1670000000      2
     3324  3326  3342  3343    1  180.0000000000    15.1670000000      2
     3327  3326  3342  3329    1  180.0000000000    15.1670000000      2
     3327  3326  3342  3343    1  180.0000000000    15.1670000000      2
     3347  3349  3350  3351    1  0.0000000000      0.0000000000       1
     3347  3349  3350  3352    1  180.0000000000    1.0041600000       2
     3347  3349  3350  3374    1  180.0000000000    1.0041600000       2
     3379  3349  3350  3351    1  0.0000000000      0.0000000000       1
     3379  3349  3350  3352    1  180.0000000000    1.0041600000       2
     3379  3349  3350  3374    1  180.0000000000    1.0041600000       2
     3347  3349  3379  3352    1  180.0000000000    15.1670000000      2
     3347  3349  3379  3380    1  180.0000000000    15.1670000000      2
     3350  3349  3379  3352    1  180.0000000000    15.1670000000      2
     3350  3349  3379  3380    1  180.0000000000    15.1670000000      2
     3323  3324  3326  3327    1  180.0000000000    15.1670000000      2
     3323  3324  3326  3342    1  180.0000000000    15.1670000000      2
     3325  3324  3326  3327    1  180.0000000000    15.1670000000      2
     3325  3324  3326  3342    1  180.0000000000    15.1670000000      2
     3326  3327  3329  3330    1  0.0000000000      0.6508444444       3
     3326  3327  3329  3331    1  0.0000000000      0.6508444444       3
     3326  3327  3329  3342    1  0.0000000000      0.6508444444       3
     3328  3327  3329  3330    1  0.0000000000      0.6508444444       3
     3328  3327  3329  3331    1  0.0000000000      0.6508444444       3
     3328  3327  3329  3342    1  0.0000000000      0.6508444444       3
     3337  3327  3329  3330    1  0.0000000000      0.6508444444       3
     3337  3327  3329  3331    1  0.0000000000      0.6508444444       3
     3337  3327  3329  3342    1  0.0000000000      0.6508444444       3
     3326  3327  3337  3338    1  0.0000000000      0.6508444444       3
     3326  3327  3337  3339    1  0.0000000000      0.6508444444       3
     3328  3327  3337  3338    1  0.0000000000      0.5020800000       3
     3328  3327  3337  3339    1  0.0000000000      0.5439200000       3
     3329  3327  3337  3338    1  0.0000000000      0.5439200000       3
     3329  3327  3337  3339    1  0.0000000000      2.1756800000       3
     3366  3367  3358  3356    1  180.0000000000    15.1670000000      2
     3368  3367  3366  3365    1  180.0000000000    15.1670000000      2
     3358  3367  3368  3369    1  0.0000000000      0.0000000000       2
     3358  3367  3368  3370    1  0.0000000000      0.0000000000       2
     3358  3367  3368  3371    1  0.0000000000      0.0000000000       2
     3358  3367  3366  3057    1  180.0000000000    15.1670000000      2
     3368  3367  3366  3057    1  180.0000000000    15.1670000000      2
     3061  3059  3057  3058    1  0.0000000000      0.6508444444       3
     3365  3059  3057  3058    1  0.0000000000      0.6508444444       3
     3365  3059  3057  3366    1  0.0000000000      0.6508444444       3
     3061  3059  3057  3366    1  0.0000000000      0.6508444444       3
     3356  3372  3374  3350    1  0.0000000000      2.1756800000       3
     3356  3372  3374  3375    1  0.0000000000      0.5439200000       3
     3356  3372  3374  3376    1  0.0000000000      2.1756800000       3
     3359  3372  3374  3350    1  0.0000000000      0.6508444444       3
     3359  3372  3374  3375    1  0.0000000000      0.6508444444       3
     3359  3372  3374  3376    1  0.0000000000      0.6508444444       3
     3373  3372  3374  3350    1  0.0000000000      0.5439200000       3
     3373  3372  3374  3375    1  0.0000000000      0.5020800000       3
     3373  3372  3374  3376    1  0.0000000000      0.5439200000       3
     3359  3360  3361  3362    1  0.0000000000      0.0000000000       2
     3359  3360  3361  3363    1  0.0000000000      0.0000000000       2
     3359  3360  3361  3364    1  0.0000000000      0.0000000000       2
     3359  3360  3365  3366    1  180.0000000000    15.1670000000      2
     3361  3360  3365  3366    1  180.0000000000    15.1670000000      2
     3365  3360  3359  3372    1  180.0000000000    15.1670000000      2
     3361  3360  3365  3059    1  180.0000000000    15.1670000000      2
     3359  3360  3365  3059    1  180.0000000000    15.1670000000      2
     3317  3346  3347  3348    1  180.0000000000    15.1670000000      2
     3317  3346  3347  3349    1  180.0000000000    15.1670000000      2
     3345  3346  3347  3348    1  180.0000000000    15.1670000000      2
     3345  3346  3347  3349    1  180.0000000000    15.1670000000      2
     3369  3368  3367  3366    1  0.0000000000      0.0000000000       2
     3370  3368  3367  3366    1  0.0000000000      0.0000000000       2
     3371  3368  3367  3366    1  0.0000000000      0.0000000000       2
     3362  3361  3360  3365    1  0.0000000000      0.0000000000       2
     3363  3361  3360  3365    1  0.0000000000      0.0000000000       2
     3364  3361  3360  3365    1  0.0000000000      0.0000000000       2
     3354  3356  3358  3359    1  180.0000000000    1.0041600000       2
     3354  3356  3358  3367    1  180.0000000000    1.0041600000       2
     3357  3356  3358  3359    1  0.0000000000      0.0000000000       1
     3357  3356  3358  3367    1  0.0000000000      0.0000000000       1
     3372  3356  3358  3359    1  180.0000000000    1.0041600000       2
     3372  3356  3358  3367    1  180.0000000000    1.0041600000       2
     3354  3356  3372  3359    1  0.0000000000      0.6508444444       3
     3354  3356  3372  3373    1  0.0000000000      0.6508444444       3
     3354  3356  3372  3374    1  0.0000000000      0.6508444444       3
     3357  3356  3372  3359    1  0.0000000000      0.6508444444       3
     3357  3356  3372  3373    1  0.0000000000      0.6508444444       3
     3357  3356  3372  3374    1  0.0000000000      0.6508444444       3
     3358  3356  3372  3359    1  0.0000000000      0.6508444444       3
     3358  3356  3372  3373    1  0.0000000000      0.6508444444       3
     3358  3356  3372  3374    1  0.0000000000      0.6508444444       3
     3356  3358  3359  3360    1  180.0000000000    15.1670000000      2
     3356  3358  3359  3372    1  180.0000000000    15.1670000000      2
     3367  3358  3359  3360    1  180.0000000000    15.1670000000      2
     3367  3358  3359  3372    1  180.0000000000    15.1670000000      2
     3356  3358  3367  3368    1  180.0000000000    15.1670000000      2
     3359  3358  3367  3366    1  180.0000000000    15.1670000000      2
     3359  3358  3367  3368    1  180.0000000000    15.1670000000      2
     3120  3122  3124  3125    1  0.0000000000      0.5439200000       3
     3120  3122  3124  3132    1  0.0000000000      2.1756800000       3
     3123  3122  3124  3125    1  0.0000000000      0.5020800000       3
     3123  3122  3124  3132    1  0.0000000000      0.5439200000       3
     3135  3122  3124  3125    1  0.0000000000      0.6508444444       3
     3135  3122  3124  3132    1  0.0000000000      0.6508444444       3
     3120  3122  3135  3119    1  180.0000000000    1.0041600000       2
     3120  3122  3135  3136    1  180.0000000000    1.0041600000       2
     3123  3122  3135  3119    1  0.0000000000      0.0000000000       1
     3123  3122  3135  3136    1  0.0000000000      0.0000000000       1
     3124  3122  3135  3119    1  180.0000000000    1.0041600000       2
     3124  3122  3135  3136    1  180.0000000000    1.0041600000       2
     3107  3106  3110  3111    1  0.0000000000      0.5439200000       3
     3107  3106  3110  3115    1  0.0000000000      0.6508444444       3
     3107  3106  3110  3139    1  0.0000000000      0.6508444444       3
     3108  3106  3110  3111    1  0.0000000000      0.5439200000       3
     3108  3106  3110  3115    1  0.0000000000      0.6508444444       3
     3108  3106  3110  3139    1  0.0000000000      0.6508444444       3
     3109  3106  3110  3111    1  0.0000000000      0.5439200000       3
     3109  3106  3110  3115    1  0.0000000000      0.6508444444       3
     3109  3106  3110  3139    1  0.0000000000      0.6508444444       3
     3349  3350  3352  3353    1  0.0000000000      0.6508444444       3
     3349  3350  3352  3354    1  0.0000000000      0.6508444444       3
     3349  3350  3352  3379    1  0.0000000000      0.6508444444       3
     3351  3350  3352  3353    1  0.0000000000      0.6508444444       3
     3351  3350  3352  3354    1  0.0000000000      0.6508444444       3
     3351  3350  3352  3379    1  0.0000000000      0.6508444444       3
     3374  3350  3352  3353    1  0.0000000000      0.6508444444       3
     3374  3350  3352  3354    1  0.0000000000      0.6508444444       3
     3374  3350  3352  3379    1  0.0000000000      0.6508444444       3
     3349  3350  3374  3372    1  0.0000000000      0.6508444444       3
     3349  3350  3374  3375    1  0.0000000000      0.6508444444       3
     3349  3350  3374  3376    1  0.0000000000      0.6508444444       3
     3351  3350  3374  3372    1  0.0000000000      0.5439200000       3
     3351  3350  3374  3375    1  0.0000000000      0.5020800000       3
     3351  3350  3374  3376    1  0.0000000000      0.5439200000       3
     3352  3350  3374  3372    1  0.0000000000      2.1756800000       3
     3352  3350  3374  3375    1  0.0000000000      0.5439200000       3
     3352  3350  3374  3376    1  0.0000000000      2.1756800000       3
     3317  3322  3323  3324    1  180.0000000000    15.1670000000      2
     3317  3322  3323  3345    1  180.0000000000    15.1670000000      2
     3343  3322  3323  3324    1  180.0000000000    15.1670000000      2
     3343  3322  3323  3345    1  180.0000000000    15.1670000000      2
     3317  3322  3343  3342    1  180.0000000000    15.1670000000      2
     3317  3322  3343  3344    1  180.0000000000    15.1670000000      2
     3323  3322  3343  3342    1  180.0000000000    15.1670000000      2
     3323  3322  3343  3344    1  180.0000000000    15.1670000000      2
     3313  3317  3318  3319    1  0.0000000000      0.5439200000       3
     3313  3317  3318  3320    1  0.0000000000      0.5439200000       3
     3313  3317  3318  3321    1  0.0000000000      0.5439200000       3
     3322  3317  3318  3319    1  0.0000000000      0.6508444444       3
     3322  3317  3318  3320    1  0.0000000000      0.6508444444       3
     3322  3317  3318  3321    1  0.0000000000      0.6508444444       3
     3346  3317  3318  3319    1  0.0000000000      0.6508444444       3
     3346  3317  3318  3320    1  0.0000000000      0.6508444444       3
     3346  3317  3318  3321    1  0.0000000000      0.6508444444       3
     3313  3317  3322  3323    1  0.0000000000      0.0000000000       2
     3313  3317  3322  3343    1  180.0000000000    1.0041600000       2
     3318  3317  3322  3323    1  0.0000000000      0.0000000000       2
     3318  3317  3322  3343    1  180.0000000000    1.0041600000       2
     3346  3317  3322  3323    1  0.0000000000      0.0000000000       2
     3346  3317  3322  3343    1  180.0000000000    0.0000000000       2
     3313  3317  3346  3345    1  0.0000000000      0.0000000000       2
     3313  3317  3346  3347    1  180.0000000000    1.0041600000       2
     3318  3317  3346  3345    1  0.0000000000      0.0000000000       2
     3318  3317  3346  3347    1  180.0000000000    1.0041600000       2
     3322  3317  3346  3345    1  0.0000000000      0.0000000000       2
     3322  3317  3346  3347    1  180.0000000000    0.0000000000       2
     3124  3126  3128  3129    1  0.0000000000      0.6508444444       3
     3124  3126  3128  3130    1  0.0000000000      0.6508444444       3
     3127  3126  3128  3129    1  0.0000000000      0.6508444444       3
     1364  3126  3128  3129    1  0.0000000000      0.6508444444       3
     1364  3126  3128  1365    1  0.0000000000      0.6508444444       3
     3124  3126  3128  1365    1  0.0000000000      0.6508444444       3
     3057  3055  3053  3051    1  0.0000000000      2.1756800000       3
     3057  3055  3053  3054    1  0.0000000000      0.5439200000       3
     3057  3055  3053  3066    1  0.0000000000      0.6508444444       3
     3053  3055  3057  3058    1  0.0000000000      0.5439200000       3
     3053  3055  3057  3059    1  0.0000000000      2.1756800000       3
     3056  3055  3057  3058    1  0.0000000000      0.5020800000       3
     3056  3055  3057  3059    1  0.0000000000      0.5439200000       3
     3063  3055  3057  3058    1  0.0000000000      0.5439200000       3
     3063  3055  3057  3059    1  0.0000000000      2.1756800000       3
     3053  3055  3063  3061    1  0.0000000000      0.6508444444       3
     3053  3055  3063  3064    1  0.0000000000      0.6508444444       3
     3053  3055  3063  3065    1  0.0000000000      0.6508444444       3
     3056  3055  3063  3061    1  0.0000000000      0.5439200000       3
     3056  3055  3063  3064    1  0.0000000000      0.5020800000       3
     3056  3055  3063  3065    1  0.0000000000      0.5020800000       3
     3057  3055  3063  3064    1  0.0000000000      0.6508444444       3
     3057  3055  3063  3065    1  0.0000000000      0.6508444444       3
     3053  3055  3057  3366    1  0.0000000000      0.6508444444       3
     3056  3055  3057  3366    1  0.0000000000      0.6508444444       3
     3063  3055  3057  3366    1  0.0000000000      0.6508444444       3
     3051  3053  3055  3056    1  0.0000000000      0.5439200000       3
     3051  3053  3055  3063    1  0.0000000000      2.1756800000       3
     3054  3053  3055  3056    1  0.0000000000      0.5020800000       3
     3054  3053  3055  3063    1  0.0000000000      0.5439200000       3
     3066  3053  3055  3056    1  0.0000000000      0.6508444444       3
     3066  3053  3055  3063    1  0.0000000000      0.6508444444       3
     3051  3053  3066  3050    1  180.0000000000    1.0041600000       2
     3051  3053  3066  3067    1  180.0000000000    1.0041600000       2
     3054  3053  3066  3050    1  0.0000000000      0.0000000000       1
     3054  3053  3066  3067    1  0.0000000000      0.0000000000       1
     3055  3053  3066  3050    1  180.0000000000    1.0041600000       2
     3055  3053  3066  3067    1  180.0000000000    1.0041600000       2
     3126  3124  3122  3120    1  0.0000000000      2.1756800000       3
     3126  3124  3122  3123    1  0.0000000000      0.5439200000       3
     3126  3124  3122  3135    1  0.0000000000      0.6508444444       3
     3122  3124  3126  3127    1  0.0000000000      0.5439200000       3
     3122  3124  3126  3128    1  0.0000000000      2.1756800000       3
     3125  3124  3126  3127    1  0.0000000000      0.5020800000       3
     3125  3124  3126  3128    1  0.0000000000      0.5439200000       3
     3132  3124  3126  3127    1  0.0000000000      0.5439200000       3
     3132  3124  3126  3128    1  0.0000000000      2.1756800000       3
     3122  3124  3132  3130    1  0.0000000000      0.6508444444       3
     3122  3124  3132  3133    1  0.0000000000      0.6508444444       3
     3122  3124  3132  3134    1  0.0000000000      0.6508444444       3
     3125  3124  3132  3130    1  0.0000000000      0.5439200000       3
     3125  3124  3132  3133    1  0.0000000000      0.5020800000       3
     3125  3124  3132  3134    1  0.0000000000      0.5020800000       3
     3126  3124  3132  3133    1  0.0000000000      0.6508444444       3
     3126  3124  3132  3134    1  0.0000000000      0.6508444444       3
     3122  3124  3126  1364    1  0.0000000000      0.6508444444       3
     3125  3124  3126  1364    1  0.0000000000      0.6508444444       3
     3132  3124  3126  1364    1  0.0000000000      0.6508444444       3
     1359  1364  1365  1366    1  180.0000000000    15.1670000000      2
     3126  1364  1365  3128    1  180.0000000000    15.1670000000      2
     1365  1364  3126  3124    1  180.0000000000    1.0041600000       2
     1359  1364  3126  3124    1  180.0000000000    1.0041600000       2
     1365  1364  3126  3127    1  0.0000000000      0.0000000000       1
     1359  1364  3126  3127    1  0.0000000000      0.0000000000       1
     1365  1364  3126  3128    1  180.0000000000    1.0041600000       2
     1359  1364  3126  3128    1  180.0000000000    1.0041600000       2
     1359  1364  1365  3128    1  180.0000000000    15.1670000000      2
     6629  6634  6635  6636    1  180.0000000000    15.1670000000      2
     6629  6634  6635  6657    1  180.0000000000    15.1670000000      2
     6655  6634  6635  6636    1  180.0000000000    15.1670000000      2
     6655  6634  6635  6657    1  180.0000000000    15.1670000000      2
     6629  6634  6655  6654    1  180.0000000000    15.1670000000      2
     6629  6634  6655  6656    1  180.0000000000    15.1670000000      2
     6635  6634  6655  6654    1  180.0000000000    15.1670000000      2
     6635  6634  6655  6656    1  180.0000000000    15.1670000000      2
     6634  6635  6636  6637    1  180.0000000000    15.1670000000      2
     6634  6635  6636  6638    1  180.0000000000    15.1670000000      2
     6657  6635  6636  6637    1  180.0000000000    15.1670000000      2
     6657  6635  6636  6638    1  180.0000000000    15.1670000000      2
     6634  6635  6657  6658    1  180.0000000000    4.1840000000       2
     6634  6635  6657  6692    1  180.0000000000    4.1840000000       2
     6636  6635  6657  6658    1  180.0000000000    4.1840000000       2
     6636  6635  6657  6692    1  180.0000000000    4.1840000000       2
     6635  6636  6638  6639    1  180.0000000000    15.1670000000      2
     6635  6636  6638  6654    1  180.0000000000    15.1670000000      2
     6637  6636  6638  6639    1  180.0000000000    15.1670000000      2
     6637  6636  6638  6654    1  180.0000000000    15.1670000000      2
     6636  6638  6639  6640    1  0.0000000000      0.0000000000       1
     6636  6638  6639  6641    1  180.0000000000    1.0041600000       2
     6636  6638  6639  6649    1  180.0000000000    1.0041600000       2
     6654  6638  6639  6640    1  0.0000000000      0.0000000000       1
     6654  6638  6639  6641    1  180.0000000000    1.0041600000       2
     6654  6638  6639  6649    1  180.0000000000    1.0041600000       2
     6636  6638  6654  6641    1  180.0000000000    15.1670000000      2
     6636  6638  6654  6655    1  180.0000000000    15.1670000000      2
     6639  6638  6654  6641    1  180.0000000000    15.1670000000      2
     6639  6638  6654  6655    1  180.0000000000    15.1670000000      2
     6638  6654  6655  6634    1  180.0000000000    15.1670000000      2
     6638  6654  6655  6656    1  180.0000000000    15.1670000000      2
     6641  6654  6655  6634    1  180.0000000000    15.1670000000      2
     6641  6654  6655  6656    1  180.0000000000    15.1670000000      2
     6638  6639  6641  6642    1  0.0000000000      0.6508444444       3
     6638  6639  6641  6643    1  0.0000000000      0.6508444444       3
     6638  6639  6641  6654    1  0.0000000000      0.6508444444       3
     6640  6639  6641  6642    1  0.0000000000      0.6508444444       3
     6640  6639  6641  6643    1  0.0000000000      0.6508444444       3
     6640  6639  6641  6654    1  0.0000000000      0.6508444444       3
     6649  6639  6641  6642    1  0.0000000000      0.6508444444       3
     6649  6639  6641  6643    1  0.0000000000      0.6508444444       3
     6649  6639  6641  6654    1  0.0000000000      0.6508444444       3
     6638  6639  6649  6650    1  0.0000000000      0.6508444444       3
     6638  6639  6649  6651    1  0.0000000000      0.6508444444       3
     6640  6639  6649  6650    1  0.0000000000      0.5020800000       3
     6640  6639  6649  6651    1  0.0000000000      0.5439200000       3
     6641  6639  6649  6650    1  0.0000000000      0.5439200000       3
     6641  6639  6649  6651    1  0.0000000000      2.1756800000       3
     6639  6641  6643  6644    1  0.0000000000      0.5439200000       3
     6639  6641  6643  6651    1  0.0000000000      2.1756800000       3
     6642  6641  6643  6644    1  0.0000000000      0.5020800000       3
     6642  6641  6643  6651    1  0.0000000000      0.5439200000       3
     6654  6641  6643  6644    1  0.0000000000      0.6508444444       3
     6654  6641  6643  6651    1  0.0000000000      0.6508444444       3
     6639  6641  6654  6638    1  180.0000000000    1.0041600000       2
     6639  6641  6654  6655    1  180.0000000000    1.0041600000       2
     6642  6641  6654  6638    1  0.0000000000      0.0000000000       1
     6642  6641  6654  6655    1  0.0000000000      0.0000000000       1
     6643  6641  6654  6638    1  180.0000000000    1.0041600000       2
     6643  6641  6654  6655    1  180.0000000000    1.0041600000       2
     6647  6649  6639  6638    1  0.0000000000      0.6508444444       3
     6647  6649  6639  6640    1  0.0000000000      0.5439200000       3
     6647  6649  6639  6641    1  0.0000000000      2.1756800000       3
     6639  6649  6647  6645    1  0.0000000000      2.1756800000       3
     6650  6649  6647  6645    1  0.0000000000      0.5439200000       3
     6651  6649  6647  6645    1  0.0000000000      2.1756800000       3
     6639  6649  6647  6648    1  0.0000000000      0.5439200000       3
     6650  6649  6647  6648    1  0.0000000000      0.5020800000       3
     6651  6649  6647  6648    1  0.0000000000      0.5439200000       3
     6639  6649  6651  6643    1  0.0000000000      0.6508444444       3
     6639  6649  6651  6652    1  0.0000000000      0.6508444444       3
     6639  6649  6651  6653    1  0.0000000000      0.6508444444       3
     6647  6649  6651  6652    1  0.0000000000      0.6508444444       3
     6647  6649  6651  6653    1  0.0000000000      0.6508444444       3
     6650  6649  6651  6643    1  0.0000000000      0.5439200000       3
     6650  6649  6651  6652    1  0.0000000000      0.5020800000       3
     6650  6649  6651  6653    1  0.0000000000      0.5020800000       3
     6639  6649  6647  260     1  0.0000000000      0.6508444444       3
     6650  6649  6647  260     1  0.0000000000      0.6508444444       3
     6651  6649  6647  260     1  0.0000000000      0.6508444444       3
     6649  6651  6643  6645    1  0.0000000000      0.6508444444       3
     6643  6651  6649  6647    1  0.0000000000      0.6508444444       3
     508   510   502   504     1  0.0000000000      0.6508444444       3
     502   510   508   506     1  0.0000000000      0.6508444444       3
     3193  3201  3199  3197    1  0.0000000000      0.6508444444       3
     3199  3201  3193  3195    1  0.0000000000      0.6508444444       3
     6625  6629  6630  6631    1  0.0000000000      0.5439200000       3
     6625  6629  6630  6632    1  0.0000000000      0.5439200000       3
     6625  6629  6630  6633    1  0.0000000000      0.5439200000       3
     6634  6629  6630  6631    1  0.0000000000      0.6508444444       3
     6634  6629  6630  6632    1  0.0000000000      0.6508444444       3
     6634  6629  6630  6633    1  0.0000000000      0.6508444444       3
     6658  6629  6630  6631    1  0.0000000000      0.6508444444       3
     6658  6629  6630  6632    1  0.0000000000      0.6508444444       3
     6658  6629  6630  6633    1  0.0000000000      0.6508444444       3
     6625  6629  6634  6635    1  0.0000000000      0.0000000000       2
     6625  6629  6634  6655    1  180.0000000000    1.0041600000       2
     6630  6629  6634  6635    1  0.0000000000      0.0000000000       2
     6630  6629  6634  6655    1  180.0000000000    1.0041600000       2
     6658  6629  6634  6635    1  0.0000000000      0.0000000000       2
     6658  6629  6634  6655    1  180.0000000000    0.0000000000       2
     6625  6629  6658  6657    1  0.0000000000      0.0000000000       2
     6625  6629  6658  6659    1  180.0000000000    1.0041600000       2
     6630  6629  6658  6657    1  0.0000000000      0.0000000000       2
     6630  6629  6658  6659    1  180.0000000000    1.0041600000       2
     6634  6629  6658  6657    1  0.0000000000      0.0000000000       2
     6634  6629  6658  6659    1  180.0000000000    0.0000000000       2
     6645  6643  6641  6639    1  0.0000000000      2.1756800000       3
     6645  6643  6641  6642    1  0.0000000000      0.5439200000       3
     6645  6643  6641  6654    1  0.0000000000      0.6508444444       3
     6641  6643  6645  6646    1  0.0000000000      0.5439200000       3
     6641  6643  6645  6647    1  0.0000000000      2.1756800000       3
     6644  6643  6645  6646    1  0.0000000000      0.5020800000       3
     6644  6643  6645  6647    1  0.0000000000      0.5439200000       3
     6651  6643  6645  6646    1  0.0000000000      0.5439200000       3
     6651  6643  6645  6647    1  0.0000000000      2.1756800000       3
     6641  6643  6651  6649    1  0.0000000000      0.6508444444       3
     6641  6643  6651  6652    1  0.0000000000      0.6508444444       3
     6641  6643  6651  6653    1  0.0000000000      0.6508444444       3
     6644  6643  6651  6649    1  0.0000000000      0.5439200000       3
     6644  6643  6651  6652    1  0.0000000000      0.5020800000       3
     6644  6643  6651  6653    1  0.0000000000      0.5020800000       3
     6645  6643  6651  6652    1  0.0000000000      0.6508444444       3
     6645  6643  6651  6653    1  0.0000000000      0.6508444444       3
     6641  6643  6645  261     1  0.0000000000      0.6508444444       3
     6644  6643  6645  261     1  0.0000000000      0.6508444444       3
     6651  6643  6645  261     1  0.0000000000      0.6508444444       3
     6626  6625  6629  6630    1  0.0000000000      0.5439200000       3
     6626  6625  6629  6634    1  0.0000000000      0.6508444444       3
     6626  6625  6629  6658    1  0.0000000000      0.6508444444       3
     6627  6625  6629  6630    1  0.0000000000      0.5439200000       3
     6627  6625  6629  6634    1  0.0000000000      0.6508444444       3
     6627  6625  6629  6658    1  0.0000000000      0.6508444444       3
     6628  6625  6629  6630    1  0.0000000000      0.5439200000       3
     6628  6625  6629  6634    1  0.0000000000      0.6508444444       3
     6628  6625  6629  6658    1  0.0000000000      0.6508444444       3
     5284  5286  5288  5289    1  0.0000000000      0.5439200000       3
     5284  5286  5288  5290    1  0.0000000000      0.6508444444       3
     5284  5286  5288  5304    1  0.0000000000      2.1756800000       3
     5287  5286  5288  5289    1  0.0000000000      0.5020800000       3
     5287  5286  5288  5290    1  0.0000000000      0.6508444444       3
     5287  5286  5288  5304    1  0.0000000000      0.5439200000       3
     5308  5286  5288  5289    1  0.0000000000      0.5439200000       3
     5308  5286  5288  5290    1  0.0000000000      0.6508444444       3
     5308  5286  5288  5304    1  0.0000000000      2.1756800000       3
     5284  5286  5308  5306    1  0.0000000000      0.6508444444       3
     5284  5286  5308  5309    1  0.0000000000      0.6508444444       3
     5284  5286  5308  5310    1  0.0000000000      0.6508444444       3
     5287  5286  5308  5306    1  0.0000000000      0.5439200000       3
     5287  5286  5308  5309    1  0.0000000000      0.5020800000       3
     5287  5286  5308  5310    1  0.0000000000      0.5020800000       3
     5288  5286  5308  5306    1  0.0000000000      0.6508444444       3
     5288  5286  5308  5309    1  0.0000000000      0.6508444444       3
     5288  5286  5308  5310    1  0.0000000000      0.6508444444       3
     3189  3199  3201  3193    1  0.0000000000      0.6508444444       3
     3189  3199  3201  3202    1  0.0000000000      0.6508444444       3
     3189  3199  3201  3203    1  0.0000000000      0.6508444444       3
     3197  3199  3201  3202    1  0.0000000000      0.6508444444       3
     3197  3199  3201  3203    1  0.0000000000      0.6508444444       3
     3200  3199  3201  3193    1  0.0000000000      0.5439200000       3
     3200  3199  3201  3202    1  0.0000000000      0.5020800000       3
     3200  3199  3201  3203    1  0.0000000000      0.5020800000       3
     3189  3199  3197  3195    1  0.0000000000      2.1756800000       3
     3200  3199  3197  3195    1  0.0000000000      0.5439200000       3
     3201  3199  3197  3195    1  0.0000000000      2.1756800000       3
     3189  3199  3197  3198    1  0.0000000000      0.5439200000       3
     3200  3199  3197  3198    1  0.0000000000      0.5020800000       3
     3201  3199  3197  3198    1  0.0000000000      0.5439200000       3
     3197  3199  3189  3188    1  0.0000000000      0.6508444444       3
     3197  3199  3189  3190    1  0.0000000000      0.5439200000       3
     3197  3199  3189  3191    1  0.0000000000      2.1756800000       3
     3200  3199  3197  1226    1  0.0000000000      0.6508444444       3
     3201  3199  3197  1226    1  0.0000000000      0.6508444444       3
     3189  3199  3197  1226    1  0.0000000000      0.6508444444       3
     6649  6647  6645  6646    1  0.0000000000      0.6508444444       3
     6649  6647  6645  261     1  0.0000000000      0.6508444444       3
     260   6647  6645  6646    1  0.0000000000      0.6508444444       3
     500   502   504   505     1  0.0000000000      0.5439200000       3
     500   502   504   506     1  0.0000000000      2.1756800000       3
     503   502   504   505     1  0.0000000000      0.5020800000       3
     503   502   504   506     1  0.0000000000      0.5439200000       3
     510   502   504   505     1  0.0000000000      0.5439200000       3
     510   502   504   506     1  0.0000000000      2.1756800000       3
     500   502   510   508     1  0.0000000000      0.6508444444       3
     500   502   510   511     1  0.0000000000      0.6508444444       3
     500   502   510   512     1  0.0000000000      0.6508444444       3
     503   502   510   508     1  0.0000000000      0.5439200000       3
     503   502   510   511     1  0.0000000000      0.5020800000       3
     503   502   510   512     1  0.0000000000      0.5020800000       3
     504   502   510   511     1  0.0000000000      0.6508444444       3
     504   502   510   512     1  0.0000000000      0.6508444444       3
     504   502   500   498     1  0.0000000000      2.1756800000       3
     504   502   500   501     1  0.0000000000      0.5439200000       3
     504   502   500   513     1  0.0000000000      0.6508444444       3
     503   502   504   6678    1  0.0000000000      0.6508444444       3
     510   502   504   6678    1  0.0000000000      0.6508444444       3
     500   502   504   6678    1  0.0000000000      0.6508444444       3
     498   500   502   503     1  0.0000000000      0.5439200000       3
     498   500   502   510     1  0.0000000000      2.1756800000       3
     501   500   502   503     1  0.0000000000      0.5020800000       3
     501   500   502   510     1  0.0000000000      0.5439200000       3
     513   500   502   503     1  0.0000000000      0.6508444444       3
     513   500   502   510     1  0.0000000000      0.6508444444       3
     498   500   513   497     1  180.0000000000    1.0041600000       2
     498   500   513   514     1  180.0000000000    1.0041600000       2
     501   500   513   497     1  0.0000000000      0.0000000000       1
     501   500   513   514     1  0.0000000000      0.0000000000       1
     502   500   513   497     1  180.0000000000    1.0041600000       2
     502   500   513   514     1  180.0000000000    1.0041600000       2
     257   256   255   260     1  0.0000000000      0.0000000000       2
     258   256   255   260     1  0.0000000000      0.0000000000       2
     259   256   255   260     1  0.0000000000      0.0000000000       2
     5301  5300  5299  5298    1  0.0000000000      0.0000000000       2
     5302  5300  5299  5298    1  0.0000000000      0.0000000000       2
     5303  5300  5299  5298    1  0.0000000000      0.0000000000       2
     497   513   514   493     1  180.0000000000    15.1670000000      2
     497   513   514   515     1  180.0000000000    15.1670000000      2
     500   513   514   493     1  180.0000000000    15.1670000000      2
     500   513   514   515     1  180.0000000000    15.1670000000      2
     5286  5288  5290  5291    1  180.0000000000    1.0041600000       2
     5286  5288  5290  5299    1  180.0000000000    1.0041600000       2
     5289  5288  5290  5291    1  0.0000000000      0.0000000000       1
     5289  5288  5290  5299    1  0.0000000000      0.0000000000       1
     5304  5288  5290  5291    1  180.0000000000    1.0041600000       2
     5304  5288  5290  5299    1  180.0000000000    1.0041600000       2
     5286  5288  5304  5291    1  0.0000000000      0.6508444444       3
     5286  5288  5304  5305    1  0.0000000000      0.6508444444       3
     5286  5288  5304  5306    1  0.0000000000      0.6508444444       3
     5289  5288  5304  5291    1  0.0000000000      0.6508444444       3
     5289  5288  5304  5305    1  0.0000000000      0.6508444444       3
     5289  5288  5304  5306    1  0.0000000000      0.6508444444       3
     5290  5288  5304  5291    1  0.0000000000      0.6508444444       3
     5290  5288  5304  5305    1  0.0000000000      0.6508444444       3
     5290  5288  5304  5306    1  0.0000000000      0.6508444444       3
     6635  6657  6658  6629    1  180.0000000000    15.1670000000      2
     6635  6657  6658  6659    1  180.0000000000    15.1670000000      2
     6692  6657  6658  6629    1  180.0000000000    15.1670000000      2
     6692  6657  6658  6659    1  180.0000000000    15.1670000000      2
     6635  6657  6692  6691    1  180.0000000000    15.1670000000      2
     6635  6657  6692  6693    1  180.0000000000    15.1670000000      2
     6658  6657  6692  6691    1  180.0000000000    15.1670000000      2
     6658  6657  6692  6693    1  180.0000000000    15.1670000000      2
     497   498   500   501     1  0.0000000000      0.6508444444       3
     497   498   500   502     1  0.0000000000      0.6508444444       3
     497   498   500   513     1  0.0000000000      0.6508444444       3
     499   498   500   501     1  0.0000000000      0.6508444444       3
     499   498   500   502     1  0.0000000000      0.6508444444       3
     499   498   500   513     1  0.0000000000      0.6508444444       3
     508   498   500   501     1  0.0000000000      0.6508444444       3
     508   498   500   502     1  0.0000000000      0.6508444444       3
     508   498   500   513     1  0.0000000000      0.6508444444       3
     497   498   508   509     1  0.0000000000      0.6508444444       3
     497   498   508   510     1  0.0000000000      0.6508444444       3
     499   498   508   509     1  0.0000000000      0.5020800000       3
     499   498   508   510     1  0.0000000000      0.5439200000       3
     500   498   508   509     1  0.0000000000      0.5439200000       3
     500   498   508   510     1  0.0000000000      2.1756800000       3
     506   508   498   497     1  0.0000000000      0.6508444444       3
     506   508   498   499     1  0.0000000000      0.5439200000       3
     506   508   498   500     1  0.0000000000      2.1756800000       3
     498   508   506   504     1  0.0000000000      2.1756800000       3
     509   508   506   504     1  0.0000000000      0.5439200000       3
     510   508   506   504     1  0.0000000000      2.1756800000       3
     498   508   506   507     1  0.0000000000      0.5439200000       3
     509   508   506   507     1  0.0000000000      0.5020800000       3
     510   508   506   507     1  0.0000000000      0.5439200000       3
     498   508   510   502     1  0.0000000000      0.6508444444       3
     498   508   510   511     1  0.0000000000      0.6508444444       3
     498   508   510   512     1  0.0000000000      0.6508444444       3
     506   508   510   511     1  0.0000000000      0.6508444444       3
     506   508   510   512     1  0.0000000000      0.6508444444       3
     509   508   510   502     1  0.0000000000      0.5439200000       3
     509   508   510   511     1  0.0000000000      0.5020800000       3
     509   508   510   512     1  0.0000000000      0.5020800000       3
     498   508   506   6677    1  0.0000000000      0.6508444444       3
     509   508   506   6677    1  0.0000000000      0.6508444444       3
     510   508   506   6677    1  0.0000000000      0.6508444444       3
     3188  3189  3191  3192    1  0.0000000000      0.6508444444       3
     3188  3189  3191  3193    1  0.0000000000      0.6508444444       3
     3188  3189  3191  3204    1  0.0000000000      0.6508444444       3
     3190  3189  3191  3192    1  0.0000000000      0.6508444444       3
     3190  3189  3191  3193    1  0.0000000000      0.6508444444       3
     3190  3189  3191  3204    1  0.0000000000      0.6508444444       3
     3199  3189  3191  3192    1  0.0000000000      0.6508444444       3
     3199  3189  3191  3193    1  0.0000000000      0.6508444444       3
     3199  3189  3191  3204    1  0.0000000000      0.6508444444       3
     3188  3189  3199  3200    1  0.0000000000      0.6508444444       3
     3188  3189  3199  3201    1  0.0000000000      0.6508444444       3
     3190  3189  3199  3200    1  0.0000000000      0.5020800000       3
     3190  3189  3199  3201    1  0.0000000000      0.5439200000       3
     3191  3189  3199  3200    1  0.0000000000      0.5439200000       3
     3191  3189  3199  3201    1  0.0000000000      2.1756800000       3
     5282  5284  5286  5287    1  0.0000000000      0.5439200000       3
     5282  5284  5286  5288    1  0.0000000000      2.1756800000       3
     5282  5284  5286  5308    1  0.0000000000      2.1756800000       3
     5285  5284  5286  5287    1  0.0000000000      0.5020800000       3
     5285  5284  5286  5288    1  0.0000000000      0.5439200000       3
     5285  5284  5286  5308    1  0.0000000000      0.5439200000       3
     5311  5284  5286  5287    1  0.0000000000      0.6508444444       3
     5311  5284  5286  5288    1  0.0000000000      0.6508444444       3
     5311  5284  5286  5308    1  0.0000000000      0.6508444444       3
     5282  5284  5311  5281    1  180.0000000000    1.0041600000       2
     5282  5284  5311  5312    1  180.0000000000    1.0041600000       2
     5285  5284  5311  5281    1  0.0000000000      0.0000000000       1
     5285  5284  5311  5312    1  0.0000000000      0.0000000000       1
     5286  5284  5311  5281    1  180.0000000000    1.0041600000       2
     5286  5284  5311  5312    1  180.0000000000    1.0041600000       2
     1345  1346  1348  1349    1  180.0000000000    15.1670000000      2
     1345  1346  1348  1378    1  180.0000000000    15.1670000000      2
     1347  1346  1348  1349    1  180.0000000000    15.1670000000      2
     1347  1346  1348  1378    1  180.0000000000    15.1670000000      2
     255   260   261   262     1  180.0000000000    15.1670000000      2
     255   260   261   6645    1  180.0000000000    15.1670000000      2
     255   260   6647  6645    1  180.0000000000    1.0041600000       2
     261   260   6647  6645    1  180.0000000000    1.0041600000       2
     255   260   6647  6648    1  0.0000000000      0.0000000000       1
     261   260   6647  6648    1  0.0000000000      0.0000000000       1
     255   260   6647  6649    1  180.0000000000    1.0041600000       2
     261   260   6647  6649    1  180.0000000000    1.0041600000       2
     260   255   254   267     1  180.0000000000    15.1670000000      2
     254   255   256   257     1  0.0000000000      0.0000000000       2
     254   255   256   258     1  0.0000000000      0.0000000000       2
     254   255   256   259     1  0.0000000000      0.0000000000       2
     254   255   260   261     1  180.0000000000    15.1670000000      2
     256   255   260   261     1  180.0000000000    15.1670000000      2
     254   255   260   6647    1  180.0000000000    15.1670000000      2
     256   255   260   6647    1  180.0000000000    15.1670000000      2
     217   218   219   220     1  180.0000000000    15.1670000000      2
     217   218   219   221     1  180.0000000000    15.1670000000      2
     240   218   219   220     1  180.0000000000    15.1670000000      2
     240   218   219   221     1  180.0000000000    15.1670000000      2
     217   218   240   241     1  180.0000000000    4.1840000000       2
     217   218   240   275     1  180.0000000000    4.1840000000       2
     219   218   240   241     1  180.0000000000    4.1840000000       2
     219   218   240   275     1  180.0000000000    4.1840000000       2
     245   247   249   250     1  0.0000000000      0.5439200000       3
     245   247   249   251     1  0.0000000000      2.1756800000       3
     245   247   249   271     1  0.0000000000      2.1756800000       3
     248   247   249   250     1  0.0000000000      0.5020800000       3
     248   247   249   251     1  0.0000000000      0.5439200000       3
     248   247   249   271     1  0.0000000000      0.5439200000       3
     274   247   249   250     1  0.0000000000      0.6508444444       3
     274   247   249   251     1  0.0000000000      0.6508444444       3
     274   247   249   271     1  0.0000000000      0.6508444444       3
     245   247   274   244     1  180.0000000000    1.0041600000       2
     245   247   274   275     1  180.0000000000    1.0041600000       2
     248   247   274   244     1  0.0000000000      0.0000000000       1
     248   247   274   275     1  0.0000000000      0.0000000000       1
     249   247   274   244     1  180.0000000000    1.0041600000       2
     249   247   274   275     1  180.0000000000    1.0041600000       2
     3212  3214  3216  3217    1  0.0000000000      0.5439200000       3
     3212  3214  3216  3218    1  0.0000000000      2.1756800000       3
     3212  3214  3216  3238    1  0.0000000000      2.1756800000       3
     3215  3214  3216  3217    1  0.0000000000      0.5020800000       3
     3215  3214  3216  3218    1  0.0000000000      0.5439200000       3
     3215  3214  3216  3238    1  0.0000000000      0.5439200000       3
     3241  3214  3216  3217    1  0.0000000000      0.6508444444       3
     3241  3214  3216  3218    1  0.0000000000      0.6508444444       3
     3241  3214  3216  3238    1  0.0000000000      0.6508444444       3
     3212  3214  3241  3211    1  180.0000000000    1.0041600000       2
     3212  3214  3241  3242    1  180.0000000000    1.0041600000       2
     3215  3214  3241  3211    1  0.0000000000      0.0000000000       1
     3215  3214  3241  3242    1  0.0000000000      0.0000000000       1
     3216  3214  3241  3211    1  180.0000000000    1.0041600000       2
     3216  3214  3241  3242    1  180.0000000000    1.0041600000       2
     261   262   253   251     1  180.0000000000    15.1670000000      2
     263   262   261   260     1  180.0000000000    15.1670000000      2
     253   262   263   264     1  0.0000000000      0.0000000000       2
     253   262   263   265     1  0.0000000000      0.0000000000       2
     253   262   263   266     1  0.0000000000      0.0000000000       2
     253   262   261   6645    1  180.0000000000    15.1670000000      2
     263   262   261   6645    1  180.0000000000    15.1670000000      2
     6643  6645  6647  6648    1  0.0000000000      0.6508444444       3
     6643  6645  6647  6649    1  0.0000000000      0.6508444444       3
     6646  6645  6647  6648    1  0.0000000000      0.6508444444       3
     261   6645  6647  6648    1  0.0000000000      0.6508444444       3
     261   6645  6647  260     1  0.0000000000      0.6508444444       3
     6643  6645  6647  260     1  0.0000000000      0.6508444444       3
     251   253   254   255     1  180.0000000000    15.1670000000      2
     251   253   254   267     1  180.0000000000    15.1670000000      2
     262   253   254   255     1  180.0000000000    15.1670000000      2
     262   253   254   267     1  180.0000000000    15.1670000000      2
     251   253   262   263     1  180.0000000000    15.1670000000      2
     254   253   262   261     1  180.0000000000    15.1670000000      2
     254   253   262   263     1  180.0000000000    15.1670000000      2
     244   245   247   248     1  0.0000000000      0.6508444444       3
     244   245   247   249     1  0.0000000000      0.6508444444       3
     244   245   247   274     1  0.0000000000      0.6508444444       3
     246   245   247   248     1  0.0000000000      0.6508444444       3
     246   245   247   249     1  0.0000000000      0.6508444444       3
     246   245   247   274     1  0.0000000000      0.6508444444       3
     269   245   247   248     1  0.0000000000      0.6508444444       3
     269   245   247   249     1  0.0000000000      0.6508444444       3
     269   245   247   274     1  0.0000000000      0.6508444444       3
     244   245   269   267     1  0.0000000000      0.6508444444       3
     244   245   269   270     1  0.0000000000      0.6508444444       3
     244   245   269   271     1  0.0000000000      0.6508444444       3
     246   245   269   267     1  0.0000000000      0.5439200000       3
     246   245   269   270     1  0.0000000000      0.5020800000       3
     246   245   269   271     1  0.0000000000      0.5439200000       3
     247   245   269   267     1  0.0000000000      2.1756800000       3
     247   245   269   270     1  0.0000000000      0.5439200000       3
     247   245   269   271     1  0.0000000000      2.1756800000       3
     3231  3230  3229  3228    1  0.0000000000      0.0000000000       2
     3232  3230  3229  3228    1  0.0000000000      0.0000000000       2
     3233  3230  3229  3228    1  0.0000000000      0.0000000000       2
     260   261   262   253     1  180.0000000000    15.1670000000      2
     6645  261   260   6647    1  180.0000000000    15.1670000000      2
     260   261   6645  6643    1  180.0000000000    1.0041600000       2
     262   261   6645  6643    1  180.0000000000    1.0041600000       2
     260   261   6645  6646    1  0.0000000000      0.0000000000       1
     262   261   6645  6646    1  0.0000000000      0.0000000000       1
     260   261   6645  6647    1  180.0000000000    1.0041600000       2
     262   261   6645  6647    1  180.0000000000    1.0041600000       2
     262   261   260   6647    1  180.0000000000    15.1670000000      2
     242   244   245   246     1  0.0000000000      0.0000000000       1
     242   244   245   247     1  180.0000000000    1.0041600000       2
     242   244   245   269     1  180.0000000000    1.0041600000       2
     274   244   245   246     1  0.0000000000      0.0000000000       1
     274   244   245   247     1  180.0000000000    1.0041600000       2
     274   244   245   269     1  180.0000000000    1.0041600000       2
     242   244   274   247     1  180.0000000000    15.1670000000      2
     242   244   274   275     1  180.0000000000    15.1670000000      2
     245   244   274   247     1  180.0000000000    15.1670000000      2
     245   244   274   275     1  180.0000000000    15.1670000000      2
     230   232   222   221     1  0.0000000000      0.6508444444       3
     230   232   222   223     1  0.0000000000      0.5439200000       3
     230   232   222   224     1  0.0000000000      2.1756800000       3
     222   232   230   228     1  0.0000000000      2.1756800000       3
     233   232   230   228     1  0.0000000000      0.5439200000       3
     234   232   230   228     1  0.0000000000      2.1756800000       3
     222   232   230   231     1  0.0000000000      0.5439200000       3
     233   232   230   231     1  0.0000000000      0.5020800000       3
     234   232   230   231     1  0.0000000000      0.5439200000       3
     222   232   234   226     1  0.0000000000      0.6508444444       3
     222   232   234   235     1  0.0000000000      0.6508444444       3
     222   232   234   236     1  0.0000000000      0.6508444444       3
     230   232   234   235     1  0.0000000000      0.6508444444       3
     230   232   234   236     1  0.0000000000      0.6508444444       3
     233   232   234   226     1  0.0000000000      0.5439200000       3
     233   232   234   235     1  0.0000000000      0.5020800000       3
     233   232   234   236     1  0.0000000000      0.5020800000       3
     222   232   230   606     1  0.0000000000      0.6508444444       3
     233   232   230   606     1  0.0000000000      0.6508444444       3
     234   232   230   606     1  0.0000000000      0.6508444444       3
     251   267   269   245     1  0.0000000000      2.1756800000       3
     251   267   269   270     1  0.0000000000      0.5439200000       3
     251   267   269   271     1  0.0000000000      2.1756800000       3
     254   267   269   245     1  0.0000000000      0.6508444444       3
     254   267   269   270     1  0.0000000000      0.6508444444       3
     254   267   269   271     1  0.0000000000      0.6508444444       3
     268   267   269   245     1  0.0000000000      0.5439200000       3
     268   267   269   270     1  0.0000000000      0.5020800000       3
     268   267   269   271     1  0.0000000000      0.5439200000       3
     218   240   241   212     1  180.0000000000    15.1670000000      2
     218   240   241   242     1  180.0000000000    15.1670000000      2
     275   240   241   212     1  180.0000000000    15.1670000000      2
     275   240   241   242     1  180.0000000000    15.1670000000      2
     218   240   275   274     1  180.0000000000    15.1670000000      2
     218   240   275   276     1  180.0000000000    15.1670000000      2
     241   240   275   274     1  180.0000000000    15.1670000000      2
     241   240   275   276     1  180.0000000000    15.1670000000      2
     218   219   221   222     1  180.0000000000    15.1670000000      2
     218   219   221   237     1  180.0000000000    15.1670000000      2
     220   219   221   222     1  180.0000000000    15.1670000000      2
     220   219   221   237     1  180.0000000000    15.1670000000      2
     3209  3211  3212  3213    1  0.0000000000      0.0000000000       1
     3209  3211  3212  3214    1  180.0000000000    1.0041600000       2
     3209  3211  3212  3236    1  180.0000000000    1.0041600000       2
     3241  3211  3212  3213    1  0.0000000000      0.0000000000       1
     3241  3211  3212  3214    1  180.0000000000    1.0041600000       2
     3241  3211  3212  3236    1  180.0000000000    1.0041600000       2
     3209  3211  3241  3214    1  180.0000000000    15.1670000000      2
     3209  3211  3241  3242    1  180.0000000000    15.1670000000      2
     3212  3211  3241  3214    1  180.0000000000    15.1670000000      2
     3212  3211  3241  3242    1  180.0000000000    15.1670000000      2
     3184  3185  3186  3187    1  180.0000000000    15.1670000000      2
     3184  3185  3186  3188    1  180.0000000000    15.1670000000      2
     3207  3185  3186  3187    1  180.0000000000    15.1670000000      2
     3207  3185  3186  3188    1  180.0000000000    15.1670000000      2
     3184  3185  3207  3208    1  180.0000000000    4.1840000000       2
     3184  3185  3207  3242    1  180.0000000000    4.1840000000       2
     3186  3185  3207  3208    1  180.0000000000    4.1840000000       2
     3186  3185  3207  3242    1  180.0000000000    4.1840000000       2
     264   263   262   261     1  0.0000000000      0.0000000000       2
     265   263   262   261     1  0.0000000000      0.0000000000       2
     266   263   262   261     1  0.0000000000      0.0000000000       2
     241   242   244   245     1  180.0000000000    15.1670000000      2
     241   242   244   274     1  180.0000000000    15.1670000000      2
     243   242   244   245     1  180.0000000000    15.1670000000      2
     243   242   244   274     1  180.0000000000    15.1670000000      2
     209   208   212   213     1  0.0000000000      0.5439200000       3
     209   208   212   217     1  0.0000000000      0.6508444444       3
     209   208   212   241     1  0.0000000000      0.6508444444       3
     210   208   212   213     1  0.0000000000      0.5439200000       3
     210   208   212   217     1  0.0000000000      0.6508444444       3
     210   208   212   241     1  0.0000000000      0.6508444444       3
     211   208   212   213     1  0.0000000000      0.5439200000       3
     211   208   212   217     1  0.0000000000      0.6508444444       3
     211   208   212   241     1  0.0000000000      0.6508444444       3
     219   221   222   223     1  0.0000000000      0.0000000000       1
     219   221   222   224     1  180.0000000000    1.0041600000       2
     219   221   222   232     1  180.0000000000    1.0041600000       2
     237   221   222   223     1  0.0000000000      0.0000000000       1
     237   221   222   224     1  180.0000000000    1.0041600000       2
     237   221   222   232     1  180.0000000000    1.0041600000       2
     219   221   237   224     1  180.0000000000    15.1670000000      2
     219   221   237   238     1  180.0000000000    15.1670000000      2
     222   221   237   224     1  180.0000000000    15.1670000000      2
     222   221   237   238     1  180.0000000000    15.1670000000      2
     244   274   275   240     1  180.0000000000    15.1670000000      2
     244   274   275   276     1  180.0000000000    15.1670000000      2
     247   274   275   240     1  180.0000000000    15.1670000000      2
     247   274   275   276     1  180.0000000000    15.1670000000      2
     3211  3241  3242  3207    1  180.0000000000    15.1670000000      2
     3211  3241  3242  3243    1  180.0000000000    15.1670000000      2
     3214  3241  3242  3207    1  180.0000000000    15.1670000000      2
     3214  3241  3242  3243    1  180.0000000000    15.1670000000      2
     221   222   224   225     1  0.0000000000      0.6508444444       3
     221   222   224   226     1  0.0000000000      0.6508444444       3
     221   222   224   237     1  0.0000000000      0.6508444444       3
     223   222   224   225     1  0.0000000000      0.6508444444       3
     223   222   224   226     1  0.0000000000      0.6508444444       3
     223   222   224   237     1  0.0000000000      0.6508444444       3
     232   222   224   225     1  0.0000000000      0.6508444444       3
     232   222   224   226     1  0.0000000000      0.6508444444       3
     232   222   224   237     1  0.0000000000      0.6508444444       3
     221   222   232   233     1  0.0000000000      0.6508444444       3
     221   222   232   234     1  0.0000000000      0.6508444444       3
     223   222   232   233     1  0.0000000000      0.5020800000       3
     223   222   232   234     1  0.0000000000      0.5439200000       3
     224   222   232   233     1  0.0000000000      0.5439200000       3
     224   222   232   234     1  0.0000000000      2.1756800000       3
     3175  3179  3180  3181    1  0.0000000000      0.5439200000       3
     3175  3179  3180  3182    1  0.0000000000      0.5439200000       3
     3175  3179  3180  3183    1  0.0000000000      0.5439200000       3
     3184  3179  3180  3181    1  0.0000000000      0.6508444444       3
     3184  3179  3180  3182    1  0.0000000000      0.6508444444       3
     3184  3179  3180  3183    1  0.0000000000      0.6508444444       3
     3208  3179  3180  3181    1  0.0000000000      0.6508444444       3
     3208  3179  3180  3182    1  0.0000000000      0.6508444444       3
     3208  3179  3180  3183    1  0.0000000000      0.6508444444       3
     3175  3179  3184  3185    1  0.0000000000      0.0000000000       2
     3175  3179  3184  3205    1  180.0000000000    1.0041600000       2
     3180  3179  3184  3185    1  0.0000000000      0.0000000000       2
     3180  3179  3184  3205    1  180.0000000000    1.0041600000       2
     3208  3179  3184  3185    1  0.0000000000      0.0000000000       2
     3208  3179  3184  3205    1  180.0000000000    0.0000000000       2
     3175  3179  3208  3207    1  0.0000000000      0.0000000000       2
     3175  3179  3208  3209    1  180.0000000000    1.0041600000       2
     3180  3179  3208  3207    1  0.0000000000      0.0000000000       2
     3180  3179  3208  3209    1  180.0000000000    1.0041600000       2
     3184  3179  3208  3207    1  0.0000000000      0.0000000000       2
     3184  3179  3208  3209    1  180.0000000000    0.0000000000       2
     221   237   238   217     1  180.0000000000    15.1670000000      2
     221   237   238   239     1  180.0000000000    15.1670000000      2
     224   237   238   217     1  180.0000000000    15.1670000000      2
     224   237   238   239     1  180.0000000000    15.1670000000      2
     222   224   226   227     1  0.0000000000      0.5439200000       3
     222   224   226   234     1  0.0000000000      2.1756800000       3
     225   224   226   227     1  0.0000000000      0.5020800000       3
     225   224   226   234     1  0.0000000000      0.5439200000       3
     237   224   226   227     1  0.0000000000      0.6508444444       3
     237   224   226   234     1  0.0000000000      0.6508444444       3
     222   224   237   221     1  180.0000000000    1.0041600000       2
     222   224   237   238     1  180.0000000000    1.0041600000       2
     225   224   237   221     1  0.0000000000      0.0000000000       1
     225   224   237   238     1  0.0000000000      0.0000000000       1
     226   224   237   221     1  180.0000000000    1.0041600000       2
     226   224   237   238     1  180.0000000000    1.0041600000       2
     232   230   228   229     1  0.0000000000      0.6508444444       3
     232   230   228   605     1  0.0000000000      0.6508444444       3
     606   230   228   229     1  0.0000000000      0.6508444444       3
     3208  3209  3211  3212    1  180.0000000000    15.1670000000      2
     3208  3209  3211  3241    1  180.0000000000    15.1670000000      2
     3210  3209  3211  3212    1  180.0000000000    15.1670000000      2
     3210  3209  3211  3241    1  180.0000000000    15.1670000000      2
     3186  3188  3189  3190    1  0.0000000000      0.0000000000       1
     3186  3188  3189  3191    1  180.0000000000    1.0041600000       2
     3186  3188  3189  3199    1  180.0000000000    1.0041600000       2
     3204  3188  3189  3190    1  0.0000000000      0.0000000000       1
     3204  3188  3189  3191    1  180.0000000000    1.0041600000       2
     3204  3188  3189  3199    1  180.0000000000    1.0041600000       2
     3186  3188  3204  3191    1  180.0000000000    15.1670000000      2
     3186  3188  3204  3205    1  180.0000000000    15.1670000000      2
     3189  3188  3204  3191    1  180.0000000000    15.1670000000      2
     3189  3188  3204  3205    1  180.0000000000    15.1670000000      2
     3185  3207  3208  3179    1  180.0000000000    15.1670000000      2
     3185  3207  3208  3209    1  180.0000000000    15.1670000000      2
     3242  3207  3208  3179    1  180.0000000000    15.1670000000      2
     3242  3207  3208  3209    1  180.0000000000    15.1670000000      2
     3185  3207  3242  3241    1  180.0000000000    15.1670000000      2
     3185  3207  3242  3243    1  180.0000000000    15.1670000000      2
     3208  3207  3242  3241    1  180.0000000000    15.1670000000      2
     3208  3207  3242  3243    1  180.0000000000    15.1670000000      2
     253   254   255   256     1  180.0000000000    15.1670000000      2
     253   254   255   260     1  180.0000000000    15.1670000000      2
     267   254   255   256     1  180.0000000000    15.1670000000      2
     253   254   267   251     1  180.0000000000    1.0041600000       2
     253   254   267   268     1  0.0000000000      0.0000000000       1
     253   254   267   269     1  180.0000000000    1.0041600000       2
     255   254   267   251     1  180.0000000000    1.0041600000       2
     255   254   267   268     1  0.0000000000      0.0000000000       1
     255   254   267   269     1  180.0000000000    1.0041600000       2
     232   234   226   228     1  0.0000000000      0.6508444444       3
     226   234   232   230     1  0.0000000000      0.6508444444       3
     3188  3204  3205  3184    1  180.0000000000    15.1670000000      2
     3188  3204  3205  3206    1  180.0000000000    15.1670000000      2
     3191  3204  3205  3184    1  180.0000000000    15.1670000000      2
     3191  3204  3205  3206    1  180.0000000000    15.1670000000      2
     208   212   213   214     1  0.0000000000      0.5439200000       3
     208   212   213   215     1  0.0000000000      0.5439200000       3
     208   212   213   216     1  0.0000000000      0.5439200000       3
     217   212   213   214     1  0.0000000000      0.6508444444       3
     217   212   213   215     1  0.0000000000      0.6508444444       3
     217   212   213   216     1  0.0000000000      0.6508444444       3
     241   212   213   214     1  0.0000000000      0.6508444444       3
     241   212   213   215     1  0.0000000000      0.6508444444       3
     241   212   213   216     1  0.0000000000      0.6508444444       3
     208   212   217   218     1  0.0000000000      0.0000000000       2
     208   212   217   238     1  180.0000000000    1.0041600000       2
     213   212   217   218     1  0.0000000000      0.0000000000       2
     213   212   217   238     1  180.0000000000    1.0041600000       2
     241   212   217   218     1  0.0000000000      0.0000000000       2
     241   212   217   238     1  180.0000000000    0.0000000000       2
     208   212   241   240     1  0.0000000000      0.0000000000       2
     208   212   241   242     1  180.0000000000    1.0041600000       2
     213   212   241   240     1  0.0000000000      0.0000000000       2
     213   212   241   242     1  180.0000000000    1.0041600000       2
     217   212   241   240     1  0.0000000000      0.0000000000       2
     217   212   241   242     1  180.0000000000    0.0000000000       2
     249   251   253   254     1  180.0000000000    1.0041600000       2
     249   251   253   262     1  180.0000000000    1.0041600000       2
     252   251   253   254     1  0.0000000000      0.0000000000       1
     252   251   253   262     1  0.0000000000      0.0000000000       1
     267   251   253   254     1  180.0000000000    1.0041600000       2
     267   251   253   262     1  180.0000000000    1.0041600000       2
     249   251   267   254     1  0.0000000000      0.6508444444       3
     249   251   267   268     1  0.0000000000      0.6508444444       3
     249   251   267   269     1  0.0000000000      0.6508444444       3
     252   251   267   254     1  0.0000000000      0.6508444444       3
     252   251   267   268     1  0.0000000000      0.6508444444       3
     252   251   267   269     1  0.0000000000      0.6508444444       3
     253   251   267   254     1  0.0000000000      0.6508444444       3
     253   251   267   268     1  0.0000000000      0.6508444444       3
     253   251   267   269     1  0.0000000000      0.6508444444       3
     3185  3186  3188  3189    1  180.0000000000    15.1670000000      2
     3185  3186  3188  3204    1  180.0000000000    15.1670000000      2
     3187  3186  3188  3189    1  180.0000000000    15.1670000000      2
     3187  3186  3188  3204    1  180.0000000000    15.1670000000      2
     247   249   251   252     1  0.0000000000      0.5439200000       3
     247   249   251   253     1  0.0000000000      0.6508444444       3
     247   249   251   267     1  0.0000000000      2.1756800000       3
     250   249   251   252     1  0.0000000000      0.5020800000       3
     250   249   251   253     1  0.0000000000      0.6508444444       3
     250   249   251   267     1  0.0000000000      0.5439200000       3
     271   249   251   252     1  0.0000000000      0.5439200000       3
     271   249   251   253     1  0.0000000000      0.6508444444       3
     271   249   251   267     1  0.0000000000      2.1756800000       3
     247   249   271   269     1  0.0000000000      0.6508444444       3
     247   249   271   272     1  0.0000000000      0.6508444444       3
     247   249   271   273     1  0.0000000000      0.6508444444       3
     250   249   271   269     1  0.0000000000      0.5439200000       3
     250   249   271   272     1  0.0000000000      0.5020800000       3
     250   249   271   273     1  0.0000000000      0.5020800000       3
     251   249   271   269     1  0.0000000000      0.6508444444       3
     251   249   271   272     1  0.0000000000      0.6508444444       3
     251   249   271   273     1  0.0000000000      0.6508444444       3
     3179  3184  3185  3186    1  180.0000000000    15.1670000000      2
     3179  3184  3185  3207    1  180.0000000000    15.1670000000      2
     3205  3184  3185  3186    1  180.0000000000    15.1670000000      2
     3205  3184  3185  3207    1  180.0000000000    15.1670000000      2
     3179  3184  3205  3204    1  180.0000000000    15.1670000000      2
     3179  3184  3205  3206    1  180.0000000000    15.1670000000      2
     3185  3184  3205  3204    1  180.0000000000    15.1670000000      2
     3185  3184  3205  3206    1  180.0000000000    15.1670000000      2
     212   241   242   243     1  180.0000000000    15.1670000000      2
     212   241   242   244     1  180.0000000000    15.1670000000      2
     240   241   242   243     1  180.0000000000    15.1670000000      2
     240   241   242   244     1  180.0000000000    15.1670000000      2
     3179  3208  3209  3210    1  180.0000000000    15.1670000000      2
     3179  3208  3209  3211    1  180.0000000000    15.1670000000      2
     3207  3208  3209  3210    1  180.0000000000    15.1670000000      2
     3207  3208  3209  3211    1  180.0000000000    15.1670000000      2
     212   217   218   219     1  180.0000000000    15.1670000000      2
     212   217   218   240     1  180.0000000000    15.1670000000      2
     238   217   218   219     1  180.0000000000    15.1670000000      2
     238   217   218   240     1  180.0000000000    15.1670000000      2
     212   217   238   237     1  180.0000000000    15.1670000000      2
     212   217   238   239     1  180.0000000000    15.1670000000      2
     218   217   238   237     1  180.0000000000    15.1670000000      2
     218   217   238   239     1  180.0000000000    15.1670000000      2
     1183  1184  1185  1186    1  180.0000000000    15.1670000000      2
     1183  1184  1185  1187    1  180.0000000000    15.1670000000      2
     1206  1184  1185  1186    1  180.0000000000    15.1670000000      2
     1206  1184  1185  1187    1  180.0000000000    15.1670000000      2
     1183  1184  1206  1207    1  180.0000000000    4.1840000000       2
     1183  1184  1206  1241    1  180.0000000000    4.1840000000       2
     1185  1184  1206  1207    1  180.0000000000    4.1840000000       2
     1185  1184  1206  1241    1  180.0000000000    4.1840000000       2
     1184  1185  1187  1188    1  180.0000000000    15.1670000000      2
     1184  1185  1187  1203    1  180.0000000000    15.1670000000      2
     1186  1185  1187  1188    1  180.0000000000    15.1670000000      2
     1186  1185  1187  1203    1  180.0000000000    15.1670000000      2
     1185  1187  1188  1189    1  0.0000000000      0.0000000000       1
     1185  1187  1188  1190    1  180.0000000000    1.0041600000       2
     1185  1187  1188  1198    1  180.0000000000    1.0041600000       2
     1203  1187  1188  1189    1  0.0000000000      0.0000000000       1
     1203  1187  1188  1190    1  180.0000000000    1.0041600000       2
     1203  1187  1188  1198    1  180.0000000000    1.0041600000       2
     1185  1187  1203  1190    1  180.0000000000    15.1670000000      2
     1185  1187  1203  1204    1  180.0000000000    15.1670000000      2
     1188  1187  1203  1190    1  180.0000000000    15.1670000000      2
     1188  1187  1203  1204    1  180.0000000000    15.1670000000      2
     1187  1203  1204  1183    1  180.0000000000    15.1670000000      2
     1187  1203  1204  1205    1  180.0000000000    15.1670000000      2
     1190  1203  1204  1183    1  180.0000000000    15.1670000000      2
     1190  1203  1204  1205    1  180.0000000000    15.1670000000      2
     1178  1183  1184  1185    1  180.0000000000    15.1670000000      2
     1178  1183  1184  1206    1  180.0000000000    15.1670000000      2
     1204  1183  1184  1185    1  180.0000000000    15.1670000000      2
     1204  1183  1184  1206    1  180.0000000000    15.1670000000      2
     1178  1183  1204  1203    1  180.0000000000    15.1670000000      2
     1178  1183  1204  1205    1  180.0000000000    15.1670000000      2
     1184  1183  1204  1203    1  180.0000000000    15.1670000000      2
     1184  1183  1204  1205    1  180.0000000000    15.1670000000      2
     1184  1206  1207  1178    1  180.0000000000    15.1670000000      2
     1184  1206  1207  1208    1  180.0000000000    15.1670000000      2
     1241  1206  1207  1178    1  180.0000000000    15.1670000000      2
     1241  1206  1207  1208    1  180.0000000000    15.1670000000      2
     1184  1206  1241  1240    1  180.0000000000    15.1670000000      2
     1184  1206  1241  1242    1  180.0000000000    15.1670000000      2
     1207  1206  1241  1240    1  180.0000000000    15.1670000000      2
     1207  1206  1241  1242    1  180.0000000000    15.1670000000      2
     1174  1178  1179  1180    1  0.0000000000      0.5439200000       3
     1174  1178  1179  1181    1  0.0000000000      0.5439200000       3
     1174  1178  1179  1182    1  0.0000000000      0.5439200000       3
     1183  1178  1179  1180    1  0.0000000000      0.6508444444       3
     1183  1178  1179  1181    1  0.0000000000      0.6508444444       3
     1183  1178  1179  1182    1  0.0000000000      0.6508444444       3
     1207  1178  1179  1180    1  0.0000000000      0.6508444444       3
     1207  1178  1179  1181    1  0.0000000000      0.6508444444       3
     1207  1178  1179  1182    1  0.0000000000      0.6508444444       3
     1174  1178  1183  1184    1  0.0000000000      0.0000000000       2
     1174  1178  1183  1204    1  180.0000000000    1.0041600000       2
     1179  1178  1183  1184    1  0.0000000000      0.0000000000       2
     1179  1178  1183  1204    1  180.0000000000    1.0041600000       2
     1207  1178  1183  1184    1  0.0000000000      0.0000000000       2
     1207  1178  1183  1204    1  180.0000000000    0.0000000000       2
     1174  1178  1207  1206    1  0.0000000000      0.0000000000       2
     1174  1178  1207  1208    1  180.0000000000    1.0041600000       2
     1179  1178  1207  1206    1  0.0000000000      0.0000000000       2
     1179  1178  1207  1208    1  180.0000000000    1.0041600000       2
     1183  1178  1207  1206    1  0.0000000000      0.0000000000       2
     1183  1178  1207  1208    1  180.0000000000    0.0000000000       2
     1178  1207  1208  1209    1  180.0000000000    15.1670000000      2
     1178  1207  1208  1210    1  180.0000000000    15.1670000000      2
     1206  1207  1208  1209    1  180.0000000000    15.1670000000      2
     1206  1207  1208  1210    1  180.0000000000    15.1670000000      2
     1210  1240  1241  1206    1  180.0000000000    15.1670000000      2
     1210  1240  1241  1242    1  180.0000000000    15.1670000000      2
     1213  1240  1241  1206    1  180.0000000000    15.1670000000      2
     1213  1240  1241  1242    1  180.0000000000    15.1670000000      2
     2417  2416  2420  2421    1  0.0000000000      0.5439200000       3
     2417  2416  2420  2425    1  0.0000000000      0.6508444444       3
     2417  2416  2420  2449    1  0.0000000000      0.6508444444       3
     2418  2416  2420  2421    1  0.0000000000      0.5439200000       3
     2418  2416  2420  2425    1  0.0000000000      0.6508444444       3
     2418  2416  2420  2449    1  0.0000000000      0.6508444444       3
     2419  2416  2420  2421    1  0.0000000000      0.5439200000       3
     2419  2416  2420  2425    1  0.0000000000      0.6508444444       3
     2419  2416  2420  2449    1  0.0000000000      0.6508444444       3
     1217  1219  1220  1221    1  180.0000000000    15.1670000000      2
     1217  1219  1220  1233    1  180.0000000000    15.1670000000      2
     1228  1219  1220  1221    1  180.0000000000    15.1670000000      2
     1228  1219  1220  1233    1  180.0000000000    15.1670000000      2
     1217  1219  1228  1229    1  180.0000000000    15.1670000000      2
     1220  1219  1228  1227    1  180.0000000000    15.1670000000      2
     1220  1219  1228  1229    1  180.0000000000    15.1670000000      2
     1207  1208  1210  1211    1  180.0000000000    15.1670000000      2
     1207  1208  1210  1240    1  180.0000000000    15.1670000000      2
     1209  1208  1210  1211    1  180.0000000000    15.1670000000      2
     1209  1208  1210  1240    1  180.0000000000    15.1670000000      2
     4749  4748  4747  4746    1  0.0000000000      0.0000000000       2
     4750  4748  4747  4746    1  0.0000000000      0.0000000000       2
     4751  4748  4747  4746    1  0.0000000000      0.0000000000       2
     6336  6335  6334  6333    1  0.0000000000      0.0000000000       2
     6337  6335  6334  6333    1  0.0000000000      0.0000000000       2
     6338  6335  6334  6333    1  0.0000000000      0.0000000000       2
     1192  1200  1198  1196    1  0.0000000000      0.6508444444       3
     1198  1200  1192  1194    1  0.0000000000      0.6508444444       3
     1219  1220  1221  1222    1  180.0000000000    15.1670000000      2
     1219  1220  1221  1226    1  180.0000000000    15.1670000000      2
     1233  1220  1221  1222    1  180.0000000000    15.1670000000      2
     1219  1220  1233  1217    1  180.0000000000    1.0041600000       2
     1219  1220  1233  1234    1  0.0000000000      0.0000000000       1
     1219  1220  1233  1235    1  180.0000000000    1.0041600000       2
     1221  1220  1233  1217    1  180.0000000000    1.0041600000       2
     1221  1220  1233  1234    1  0.0000000000      0.0000000000       1
     1221  1220  1233  1235    1  180.0000000000    1.0041600000       2
     1208  1210  1211  1212    1  0.0000000000      0.0000000000       1
     1208  1210  1211  1213    1  180.0000000000    1.0041600000       2
     1208  1210  1211  1235    1  180.0000000000    1.0041600000       2
     1240  1210  1211  1212    1  0.0000000000      0.0000000000       1
     1240  1210  1211  1213    1  180.0000000000    1.0041600000       2
     1240  1210  1211  1235    1  180.0000000000    1.0041600000       2
     1208  1210  1240  1213    1  180.0000000000    15.1670000000      2
     1208  1210  1240  1241    1  180.0000000000    15.1670000000      2
     1211  1210  1240  1213    1  180.0000000000    15.1670000000      2
     1211  1210  1240  1241    1  180.0000000000    15.1670000000      2
     1211  1213  1215  1216    1  0.0000000000      0.5439200000       3
     1211  1213  1215  1217    1  0.0000000000      2.1756800000       3
     1211  1213  1215  1237    1  0.0000000000      2.1756800000       3
     1214  1213  1215  1216    1  0.0000000000      0.5020800000       3
     1214  1213  1215  1217    1  0.0000000000      0.5439200000       3
     1214  1213  1215  1237    1  0.0000000000      0.5439200000       3
     1240  1213  1215  1216    1  0.0000000000      0.6508444444       3
     1240  1213  1215  1217    1  0.0000000000      0.6508444444       3
     1240  1213  1215  1237    1  0.0000000000      0.6508444444       3
     1211  1213  1240  1210    1  180.0000000000    1.0041600000       2
     1211  1213  1240  1241    1  180.0000000000    1.0041600000       2
     1214  1213  1240  1210    1  0.0000000000      0.0000000000       1
     1214  1213  1240  1241    1  0.0000000000      0.0000000000       1
     1215  1213  1240  1210    1  180.0000000000    1.0041600000       2
     1215  1213  1240  1241    1  180.0000000000    1.0041600000       2
     1215  1217  1219  1220    1  180.0000000000    1.0041600000       2
     1215  1217  1219  1228    1  180.0000000000    1.0041600000       2
     1218  1217  1219  1220    1  0.0000000000      0.0000000000       1
     1218  1217  1219  1228    1  0.0000000000      0.0000000000       1
     1233  1217  1219  1220    1  180.0000000000    1.0041600000       2
     1233  1217  1219  1228    1  180.0000000000    1.0041600000       2
     1215  1217  1233  1220    1  0.0000000000      0.6508444444       3
     1215  1217  1233  1234    1  0.0000000000      0.6508444444       3
     1215  1217  1233  1235    1  0.0000000000      0.6508444444       3
     1218  1217  1233  1220    1  0.0000000000      0.6508444444       3
     1218  1217  1233  1234    1  0.0000000000      0.6508444444       3
     1218  1217  1233  1235    1  0.0000000000      0.6508444444       3
     1219  1217  1233  1220    1  0.0000000000      0.6508444444       3
     1219  1217  1233  1234    1  0.0000000000      0.6508444444       3
     1219  1217  1233  1235    1  0.0000000000      0.6508444444       3
     1213  1215  1217  1218    1  0.0000000000      0.5439200000       3
     1213  1215  1217  1219    1  0.0000000000      0.6508444444       3
     1213  1215  1217  1233    1  0.0000000000      2.1756800000       3
     1216  1215  1217  1218    1  0.0000000000      0.5020800000       3
     1216  1215  1217  1219    1  0.0000000000      0.6508444444       3
     1216  1215  1217  1233    1  0.0000000000      0.5439200000       3
     1237  1215  1217  1218    1  0.0000000000      0.5439200000       3
     1237  1215  1217  1219    1  0.0000000000      0.6508444444       3
     1237  1215  1217  1233    1  0.0000000000      2.1756800000       3
     1213  1215  1237  1235    1  0.0000000000      0.6508444444       3
     1213  1215  1237  1238    1  0.0000000000      0.6508444444       3
     1213  1215  1237  1239    1  0.0000000000      0.6508444444       3
     1216  1215  1237  1235    1  0.0000000000      0.5439200000       3
     1216  1215  1237  1238    1  0.0000000000      0.5020800000       3
     1216  1215  1237  1239    1  0.0000000000      0.5020800000       3
     1217  1215  1237  1235    1  0.0000000000      0.6508444444       3
     1217  1215  1237  1238    1  0.0000000000      0.6508444444       3
     1217  1215  1237  1239    1  0.0000000000      0.6508444444       3
     4746  4747  4738  4736    1  180.0000000000    15.1670000000      2
     4748  4747  4746  4745    1  180.0000000000    15.1670000000      2
     4738  4747  4748  4749    1  0.0000000000      0.0000000000       2
     4738  4747  4748  4750    1  0.0000000000      0.0000000000       2
     4738  4747  4748  4751    1  0.0000000000      0.0000000000       2
     4738  4747  4746  5541    1  180.0000000000    15.1670000000      2
     4748  4747  4746  5541    1  180.0000000000    15.1670000000      2
     5936  5935  5939  5940    1  0.0000000000      0.5439200000       3
     5936  5935  5939  5944    1  0.0000000000      0.6508444444       3
     5936  5935  5939  5968    1  0.0000000000      0.6508444444       3
     5937  5935  5939  5940    1  0.0000000000      0.5439200000       3
     5937  5935  5939  5944    1  0.0000000000      0.6508444444       3
     5937  5935  5939  5968    1  0.0000000000      0.6508444444       3
     5938  5935  5939  5940    1  0.0000000000      0.5439200000       3
     5938  5935  5939  5944    1  0.0000000000      0.6508444444       3
     5938  5935  5939  5968    1  0.0000000000      0.6508444444       3
     1221  1226  1227  1228    1  180.0000000000    15.1670000000      2
     3197  1226  1227  3195    1  180.0000000000    15.1670000000      2
     1227  1226  3197  3198    1  0.0000000000      0.0000000000       1
     1221  1226  3197  3198    1  0.0000000000      0.0000000000       1
     1227  1226  3197  3199    1  180.0000000000    1.0041600000       2
     1221  1226  3197  3199    1  180.0000000000    1.0041600000       2
     1227  1226  3197  3195    1  180.0000000000    1.0041600000       2
     1221  1226  3197  3195    1  180.0000000000    1.0041600000       2
     1221  1226  1227  3195    1  180.0000000000    15.1670000000      2
     1229  1228  1227  1226    1  180.0000000000    15.1670000000      2
     1219  1228  1229  1230    1  0.0000000000      0.0000000000       2
     1219  1228  1229  1231    1  0.0000000000      0.0000000000       2
     1219  1228  1229  1232    1  0.0000000000      0.0000000000       2
     1227  1228  1219  1217    1  180.0000000000    15.1670000000      2
     1229  1228  1227  3195    1  180.0000000000    15.1670000000      2
     1219  1228  1227  3195    1  180.0000000000    15.1670000000      2
     1226  1221  1220  1233    1  180.0000000000    15.1670000000      2
     1220  1221  1222  1223    1  0.0000000000      0.0000000000       2
     1220  1221  1222  1224    1  0.0000000000      0.0000000000       2
     1220  1221  1222  1225    1  0.0000000000      0.0000000000       2
     1220  1221  1226  1227    1  180.0000000000    15.1670000000      2
     1222  1221  1226  1227    1  180.0000000000    15.1670000000      2
     1220  1221  1226  3197    1  180.0000000000    15.1670000000      2
     1222  1221  1226  3197    1  180.0000000000    15.1670000000      2
     4349  4348  4352  4353    1  0.0000000000      0.5439200000       3
     4349  4348  4352  4357    1  0.0000000000      0.6508444444       3
     4349  4348  4352  4381    1  0.0000000000      0.6508444444       3
     4350  4348  4352  4353    1  0.0000000000      0.5439200000       3
     4350  4348  4352  4357    1  0.0000000000      0.6508444444       3
     4350  4348  4352  4381    1  0.0000000000      0.6508444444       3
     4351  4348  4352  4353    1  0.0000000000      0.5439200000       3
     4351  4348  4352  4357    1  0.0000000000      0.6508444444       3
     4351  4348  4352  4381    1  0.0000000000      0.6508444444       3
     6321  6323  6325  6326    1  180.0000000000    1.0041600000       2
     6321  6323  6325  6334    1  180.0000000000    1.0041600000       2
     6324  6323  6325  6326    1  0.0000000000      0.0000000000       1
     6324  6323  6325  6334    1  0.0000000000      0.0000000000       1
     6339  6323  6325  6326    1  180.0000000000    1.0041600000       2
     6339  6323  6325  6334    1  180.0000000000    1.0041600000       2
     6321  6323  6339  6326    1  0.0000000000      0.6508444444       3
     6321  6323  6339  6340    1  0.0000000000      0.6508444444       3
     6321  6323  6339  6341    1  0.0000000000      0.6508444444       3
     6324  6323  6339  6326    1  0.0000000000      0.6508444444       3
     6324  6323  6339  6340    1  0.0000000000      0.6508444444       3
     6324  6323  6339  6341    1  0.0000000000      0.6508444444       3
     6325  6323  6339  6326    1  0.0000000000      0.6508444444       3
     6325  6323  6339  6340    1  0.0000000000      0.6508444444       3
     6325  6323  6339  6341    1  0.0000000000      0.6508444444       3
     1188  1190  1192  1193    1  0.0000000000      0.5439200000       3
     1188  1190  1192  1200    1  0.0000000000      2.1756800000       3
     1191  1190  1192  1193    1  0.0000000000      0.5020800000       3
     1191  1190  1192  1200    1  0.0000000000      0.5439200000       3
     1203  1190  1192  1193    1  0.0000000000      0.6508444444       3
     1203  1190  1192  1200    1  0.0000000000      0.6508444444       3
     1188  1190  1203  1187    1  180.0000000000    1.0041600000       2
     1188  1190  1203  1204    1  180.0000000000    1.0041600000       2
     1191  1190  1203  1187    1  0.0000000000      0.0000000000       1
     1191  1190  1203  1204    1  0.0000000000      0.0000000000       1
     1192  1190  1203  1187    1  180.0000000000    1.0041600000       2
     1192  1190  1203  1204    1  180.0000000000    1.0041600000       2
     1175  1174  1178  1179    1  0.0000000000      0.5439200000       3
     1175  1174  1178  1183    1  0.0000000000      0.6508444444       3
     1175  1174  1178  1207    1  0.0000000000      0.6508444444       3
     1176  1174  1178  1179    1  0.0000000000      0.5439200000       3
     1176  1174  1178  1183    1  0.0000000000      0.6508444444       3
     1176  1174  1178  1207    1  0.0000000000      0.6508444444       3
     1177  1174  1178  1179    1  0.0000000000      0.5439200000       3
     1177  1174  1178  1183    1  0.0000000000      0.6508444444       3
     1177  1174  1178  1207    1  0.0000000000      0.6508444444       3
     1226  1227  1228  1219    1  180.0000000000    15.1670000000      2
     1228  1227  1226  3197    1  180.0000000000    15.1670000000      2
     1226  1227  3195  3193    1  180.0000000000    1.0041600000       2
     1228  1227  3195  3193    1  180.0000000000    1.0041600000       2
     1226  1227  3195  3196    1  0.0000000000      0.0000000000       1
     1228  1227  3195  3196    1  0.0000000000      0.0000000000       1
     1226  1227  3195  3197    1  180.0000000000    1.0041600000       2
     1228  1227  3195  3197    1  180.0000000000    1.0041600000       2
     6319  6321  6323  6324    1  0.0000000000      0.5439200000       3
     6319  6321  6323  6325    1  0.0000000000      0.6508444444       3
     6319  6321  6323  6339    1  0.0000000000      2.1756800000       3
     6322  6321  6323  6324    1  0.0000000000      0.5020800000       3
     6322  6321  6323  6325    1  0.0000000000      0.6508444444       3
     6322  6321  6323  6339    1  0.0000000000      0.5439200000       3
     6343  6321  6323  6324    1  0.0000000000      0.5439200000       3
     6343  6321  6323  6325    1  0.0000000000      0.6508444444       3
     6343  6321  6323  6339    1  0.0000000000      2.1756800000       3
     6319  6321  6343  6341    1  0.0000000000      0.6508444444       3
     6319  6321  6343  6344    1  0.0000000000      0.6508444444       3
     6319  6321  6343  6345    1  0.0000000000      0.6508444444       3
     6322  6321  6343  6341    1  0.0000000000      0.5439200000       3
     6322  6321  6343  6344    1  0.0000000000      0.5020800000       3
     6322  6321  6343  6345    1  0.0000000000      0.5020800000       3
     6323  6321  6343  6341    1  0.0000000000      0.6508444444       3
     6323  6321  6343  6344    1  0.0000000000      0.6508444444       3
     6323  6321  6343  6345    1  0.0000000000      0.6508444444       3
     5935  5939  5940  5941    1  0.0000000000      0.5439200000       3
     5935  5939  5940  5942    1  0.0000000000      0.5439200000       3
     5935  5939  5940  5943    1  0.0000000000      0.5439200000       3
     5944  5939  5940  5941    1  0.0000000000      0.6508444444       3
     5944  5939  5940  5942    1  0.0000000000      0.6508444444       3
     5944  5939  5940  5943    1  0.0000000000      0.6508444444       3
     5968  5939  5940  5941    1  0.0000000000      0.6508444444       3
     5968  5939  5940  5942    1  0.0000000000      0.6508444444       3
     5968  5939  5940  5943    1  0.0000000000      0.6508444444       3
     5935  5939  5944  5945    1  0.0000000000      0.0000000000       2
     5935  5939  5944  5965    1  180.0000000000    1.0041600000       2
     5940  5939  5944  5945    1  0.0000000000      0.0000000000       2
     5940  5939  5944  5965    1  180.0000000000    1.0041600000       2
     5968  5939  5944  5945    1  0.0000000000      0.0000000000       2
     5968  5939  5944  5965    1  180.0000000000    0.0000000000       2
     5935  5939  5968  5967    1  0.0000000000      0.0000000000       2
     5935  5939  5968  5969    1  180.0000000000    1.0041600000       2
     5940  5939  5968  5967    1  0.0000000000      0.0000000000       2
     5940  5939  5968  5969    1  180.0000000000    1.0041600000       2
     5944  5939  5968  5967    1  0.0000000000      0.0000000000       2
     5944  5939  5968  5969    1  180.0000000000    0.0000000000       2
     4437  4435  4433  4431    1  0.0000000000      2.1756800000       3
     4437  4435  4433  4434    1  0.0000000000      0.5439200000       3
     4437  4435  4433  4446    1  0.0000000000      0.6508444444       3
     4433  4435  4437  4438    1  0.0000000000      0.5439200000       3
     4433  4435  4437  4439    1  0.0000000000      2.1756800000       3
     4436  4435  4437  4438    1  0.0000000000      0.5020800000       3
     4436  4435  4437  4439    1  0.0000000000      0.5439200000       3
     4443  4435  4437  4438    1  0.0000000000      0.5439200000       3
     4443  4435  4437  4439    1  0.0000000000      2.1756800000       3
     4433  4435  4443  4441    1  0.0000000000      0.6508444444       3
     4433  4435  4443  4444    1  0.0000000000      0.6508444444       3
     4433  4435  4443  4445    1  0.0000000000      0.6508444444       3
     4436  4435  4443  4441    1  0.0000000000      0.5439200000       3
     4436  4435  4443  4444    1  0.0000000000      0.5020800000       3
     4436  4435  4443  4445    1  0.0000000000      0.5020800000       3
     4437  4435  4443  4444    1  0.0000000000      0.6508444444       3
     4437  4435  4443  4445    1  0.0000000000      0.6508444444       3
     4433  4435  4437  5987    1  0.0000000000      0.6508444444       3
     4436  4435  4437  5987    1  0.0000000000      0.6508444444       3
     4443  4435  4437  5987    1  0.0000000000      0.6508444444       3
     5944  5945  5946  5947    1  180.0000000000    15.1670000000      2
     5944  5945  5946  5948    1  180.0000000000    15.1670000000      2
     5967  5945  5946  5947    1  180.0000000000    15.1670000000      2
     5967  5945  5946  5948    1  180.0000000000    15.1670000000      2
     5944  5945  5967  5968    1  180.0000000000    4.1840000000       2
     5944  5945  5967  6002    1  180.0000000000    4.1840000000       2
     5946  5945  5967  5968    1  180.0000000000    4.1840000000       2
     5946  5945  5967  6002    1  180.0000000000    4.1840000000       2
     5428  5429  5430  5431    1  180.0000000000    15.1670000000      2
     5428  5429  5430  5435    1  180.0000000000    15.1670000000      2
     5442  5429  5430  5431    1  180.0000000000    15.1670000000      2
     5428  5429  5442  5426    1  180.0000000000    1.0041600000       2
     5428  5429  5442  5443    1  0.0000000000      0.0000000000       1
     5428  5429  5442  5444    1  180.0000000000    1.0041600000       2
     5430  5429  5442  5426    1  180.0000000000    1.0041600000       2
     5430  5429  5442  5443    1  0.0000000000      0.0000000000       1
     5430  5429  5442  5444    1  180.0000000000    1.0041600000       2
     5432  5431  5430  5435    1  0.0000000000      0.0000000000       2
     5433  5431  5430  5435    1  0.0000000000      0.0000000000       2
     5434  5431  5430  5435    1  0.0000000000      0.0000000000       2
     1210  1211  1213  1214    1  0.0000000000      0.6508444444       3
     1210  1211  1213  1215    1  0.0000000000      0.6508444444       3
     1210  1211  1213  1240    1  0.0000000000      0.6508444444       3
     1212  1211  1213  1214    1  0.0000000000      0.6508444444       3
     1212  1211  1213  1215    1  0.0000000000      0.6508444444       3
     1212  1211  1213  1240    1  0.0000000000      0.6508444444       3
     1235  1211  1213  1214    1  0.0000000000      0.6508444444       3
     1235  1211  1213  1215    1  0.0000000000      0.6508444444       3
     1235  1211  1213  1240    1  0.0000000000      0.6508444444       3
     1210  1211  1235  1233    1  0.0000000000      0.6508444444       3
     1210  1211  1235  1236    1  0.0000000000      0.6508444444       3
     1210  1211  1235  1237    1  0.0000000000      0.6508444444       3
     1212  1211  1235  1233    1  0.0000000000      0.5439200000       3
     1212  1211  1235  1236    1  0.0000000000      0.5020800000       3
     1212  1211  1235  1237    1  0.0000000000      0.5439200000       3
     1213  1211  1235  1233    1  0.0000000000      2.1756800000       3
     1213  1211  1235  1236    1  0.0000000000      0.5439200000       3
     1213  1211  1235  1237    1  0.0000000000      2.1756800000       3
     3682  3680  3678  3679    1  0.0000000000      0.6508444444       3
     3682  3680  3678  5435    1  0.0000000000      0.6508444444       3
     5436  3680  3678  3679    1  0.0000000000      0.6508444444       3
     5982  5987  5988  5989    1  180.0000000000    15.1670000000      2
     4437  5987  5988  4439    1  180.0000000000    15.1670000000      2
     5982  5987  4437  4435    1  180.0000000000    1.0041600000       2
     5988  5987  4437  4435    1  180.0000000000    1.0041600000       2
     5982  5987  4437  4438    1  0.0000000000      0.0000000000       1
     5988  5987  4437  4438    1  0.0000000000      0.0000000000       1
     5982  5987  4437  4439    1  180.0000000000    1.0041600000       2
     5988  5987  4437  4439    1  180.0000000000    1.0041600000       2
     5982  5987  5988  4439    1  180.0000000000    15.1670000000      2
     5939  5944  5945  5946    1  180.0000000000    15.1670000000      2
     5939  5944  5945  5967    1  180.0000000000    15.1670000000      2
     5965  5944  5945  5946    1  180.0000000000    15.1670000000      2
     5965  5944  5945  5967    1  180.0000000000    15.1670000000      2
     5939  5944  5965  5964    1  180.0000000000    15.1670000000      2
     5939  5944  5965  5966    1  180.0000000000    15.1670000000      2
     5945  5944  5965  5964    1  180.0000000000    15.1670000000      2
     5945  5944  5965  5966    1  180.0000000000    15.1670000000      2
     1217  1233  1235  1211    1  0.0000000000      2.1756800000       3
     1217  1233  1235  1236    1  0.0000000000      0.5439200000       3
     1217  1233  1235  1237    1  0.0000000000      2.1756800000       3
     1220  1233  1235  1211    1  0.0000000000      0.6508444444       3
     1220  1233  1235  1236    1  0.0000000000      0.6508444444       3
     1220  1233  1235  1237    1  0.0000000000      0.6508444444       3
     1234  1233  1235  1211    1  0.0000000000      0.5439200000       3
     1234  1233  1235  1236    1  0.0000000000      0.5020800000       3
     1234  1233  1235  1237    1  0.0000000000      0.5439200000       3
     5426  5428  5429  5430    1  180.0000000000    15.1670000000      2
     5426  5428  5429  5442    1  180.0000000000    15.1670000000      2
     5437  5428  5429  5430    1  180.0000000000    15.1670000000      2
     5437  5428  5429  5442    1  180.0000000000    15.1670000000      2
     5426  5428  5437  5438    1  180.0000000000    15.1670000000      2
     5429  5428  5437  5436    1  180.0000000000    15.1670000000      2
     5429  5428  5437  5438    1  180.0000000000    15.1670000000      2
     5978  5980  5981  5982    1  180.0000000000    15.1670000000      2
     5978  5980  5981  5994    1  180.0000000000    15.1670000000      2
     5989  5980  5981  5982    1  180.0000000000    15.1670000000      2
     5989  5980  5981  5994    1  180.0000000000    15.1670000000      2
     5978  5980  5989  5990    1  180.0000000000    15.1670000000      2
     5981  5980  5989  5988    1  180.0000000000    15.1670000000      2
     5981  5980  5989  5990    1  180.0000000000    15.1670000000      2
     5424  5426  5428  5429    1  180.0000000000    1.0041600000       2
     5424  5426  5428  5437    1  180.0000000000    1.0041600000       2
     5427  5426  5428  5429    1  0.0000000000      0.0000000000       1
     5427  5426  5428  5437    1  0.0000000000      0.0000000000       1
     5442  5426  5428  5429    1  180.0000000000    1.0041600000       2
     5442  5426  5428  5437    1  180.0000000000    1.0041600000       2
     5424  5426  5442  5429    1  0.0000000000      0.6508444444       3
     5424  5426  5442  5443    1  0.0000000000      0.6508444444       3
     5424  5426  5442  5444    1  0.0000000000      0.6508444444       3
     5427  5426  5442  5429    1  0.0000000000      0.6508444444       3
     5427  5426  5442  5443    1  0.0000000000      0.6508444444       3
     5427  5426  5442  5444    1  0.0000000000      0.6508444444       3
     5428  5426  5442  5429    1  0.0000000000      0.6508444444       3
     5428  5426  5442  5443    1  0.0000000000      0.6508444444       3
     5428  5426  5442  5444    1  0.0000000000      0.6508444444       3
     5439  5438  5437  5436    1  0.0000000000      0.0000000000       2
     5440  5438  5437  5436    1  0.0000000000      0.0000000000       2
     5441  5438  5437  5436    1  0.0000000000      0.0000000000       2
     5987  5988  5989  5980    1  180.0000000000    15.1670000000      2
     5989  5988  5987  4437    1  180.0000000000    15.1670000000      2
     5987  5988  4439  4437    1  180.0000000000    1.0041600000       2
     5989  5988  4439  4437    1  180.0000000000    1.0041600000       2
     5987  5988  4439  4440    1  0.0000000000      0.0000000000       1
     5989  5988  4439  4440    1  0.0000000000      0.0000000000       1
     5987  5988  4439  4441    1  180.0000000000    1.0041600000       2
     5989  5988  4439  4441    1  180.0000000000    1.0041600000       2
     5968  5969  5971  5972    1  180.0000000000    15.1670000000      2
     5968  5969  5971  6001    1  180.0000000000    15.1670000000      2
     5970  5969  5971  5972    1  180.0000000000    15.1670000000      2
     5970  5969  5971  6001    1  180.0000000000    15.1670000000      2
     5984  5983  5982  5987    1  0.0000000000      0.0000000000       2
     5985  5983  5982  5987    1  0.0000000000      0.0000000000       2
     5986  5983  5982  5987    1  0.0000000000      0.0000000000       2
     5978  5994  5996  5972    1  0.0000000000      2.1756800000       3
     5978  5994  5996  5997    1  0.0000000000      0.5439200000       3
     5978  5994  5996  5998    1  0.0000000000      2.1756800000       3
     5981  5994  5996  5972    1  0.0000000000      0.6508444444       3
     5981  5994  5996  5997    1  0.0000000000      0.6508444444       3
     5981  5994  5996  5998    1  0.0000000000      0.6508444444       3
     5995  5994  5996  5972    1  0.0000000000      0.5439200000       3
     5995  5994  5996  5997    1  0.0000000000      0.5020800000       3
     5995  5994  5996  5998    1  0.0000000000      0.5439200000       3
     5972  5974  5976  5977    1  0.0000000000      0.5439200000       3
     5972  5974  5976  5978    1  0.0000000000      2.1756800000       3
     5972  5974  5976  5998    1  0.0000000000      2.1756800000       3
     5975  5974  5976  5977    1  0.0000000000      0.5020800000       3
     5975  5974  5976  5978    1  0.0000000000      0.5439200000       3
     5975  5974  5976  5998    1  0.0000000000      0.5439200000       3
     6001  5974  5976  5977    1  0.0000000000      0.6508444444       3
     6001  5974  5976  5978    1  0.0000000000      0.6508444444       3
     6001  5974  5976  5998    1  0.0000000000      0.6508444444       3
     5972  5974  6001  5971    1  180.0000000000    1.0041600000       2
     5972  5974  6001  6002    1  180.0000000000    1.0041600000       2
     5975  5974  6001  5971    1  0.0000000000      0.0000000000       1
     5975  5974  6001  6002    1  0.0000000000      0.0000000000       1
     5976  5974  6001  5971    1  180.0000000000    1.0041600000       2
     5976  5974  6001  6002    1  180.0000000000    1.0041600000       2
     5948  5964  5965  5944    1  180.0000000000    15.1670000000      2
     5948  5964  5965  5966    1  180.0000000000    15.1670000000      2
     5951  5964  5965  5944    1  180.0000000000    15.1670000000      2
     5951  5964  5965  5966    1  180.0000000000    15.1670000000      2
     5971  6001  6002  5967    1  180.0000000000    15.1670000000      2
     5971  6001  6002  6003    1  180.0000000000    15.1670000000      2
     5974  6001  6002  5967    1  180.0000000000    15.1670000000      2
     5974  6001  6002  6003    1  180.0000000000    15.1670000000      2
     3680  3682  3672  3671    1  0.0000000000      0.6508444444       3
     3680  3682  3672  3673    1  0.0000000000      0.5439200000       3
     3680  3682  3672  3674    1  0.0000000000      2.1756800000       3
     3672  3682  3680  3678    1  0.0000000000      2.1756800000       3
     3683  3682  3680  3678    1  0.0000000000      0.5439200000       3
     3684  3682  3680  3678    1  0.0000000000      2.1756800000       3
     3672  3682  3680  3681    1  0.0000000000      0.5439200000       3
     3683  3682  3680  3681    1  0.0000000000      0.5020800000       3
     3684  3682  3680  3681    1  0.0000000000      0.5439200000       3
     3672  3682  3684  3676    1  0.0000000000      0.6508444444       3
     3672  3682  3684  3685    1  0.0000000000      0.6508444444       3
     3672  3682  3684  3686    1  0.0000000000      0.6508444444       3
     3680  3682  3684  3685    1  0.0000000000      0.6508444444       3
     3680  3682  3684  3686    1  0.0000000000      0.6508444444       3
     3683  3682  3684  3676    1  0.0000000000      0.5439200000       3
     3683  3682  3684  3685    1  0.0000000000      0.5020800000       3
     3683  3682  3684  3686    1  0.0000000000      0.5020800000       3
     3672  3682  3680  5436    1  0.0000000000      0.6508444444       3
     3683  3682  3680  5436    1  0.0000000000      0.6508444444       3
     3684  3682  3680  5436    1  0.0000000000      0.6508444444       3
     5939  5968  5969  5970    1  180.0000000000    15.1670000000      2
     5939  5968  5969  5971    1  180.0000000000    15.1670000000      2
     5967  5968  5969  5970    1  180.0000000000    15.1670000000      2
     5967  5968  5969  5971    1  180.0000000000    15.1670000000      2
     5980  5981  5982  5983    1  180.0000000000    15.1670000000      2
     5980  5981  5982  5987    1  180.0000000000    15.1670000000      2
     5994  5981  5982  5983    1  180.0000000000    15.1670000000      2
     5980  5981  5994  5978    1  180.0000000000    1.0041600000       2
     5980  5981  5994  5995    1  0.0000000000      0.0000000000       1
     5980  5981  5994  5996    1  180.0000000000    1.0041600000       2
     5982  5981  5994  5978    1  180.0000000000    1.0041600000       2
     5982  5981  5994  5995    1  0.0000000000      0.0000000000       1
     5982  5981  5994  5996    1  180.0000000000    1.0041600000       2
     5420  5444  5446  5424    1  0.0000000000      0.6508444444       3
     5420  5444  5446  5447    1  0.0000000000      0.6508444444       3
     5420  5444  5446  5448    1  0.0000000000      0.6508444444       3
     5442  5444  5446  5424    1  0.0000000000      0.6508444444       3
     5442  5444  5446  5447    1  0.0000000000      0.6508444444       3
     5442  5444  5446  5448    1  0.0000000000      0.6508444444       3
     5445  5444  5446  5424    1  0.0000000000      0.5439200000       3
     5445  5444  5446  5447    1  0.0000000000      0.5020800000       3
     5445  5444  5446  5448    1  0.0000000000      0.5020800000       3
     4441  4439  4437  4438    1  0.0000000000      0.6508444444       3
     4441  4439  4437  5987    1  0.0000000000      0.6508444444       3
     5988  4439  4437  4438    1  0.0000000000      0.6508444444       3
     5946  5948  5949  5950    1  0.0000000000      0.0000000000       1
     5946  5948  5949  5951    1  180.0000000000    1.0041600000       2
     5946  5948  5949  5959    1  180.0000000000    1.0041600000       2
     5964  5948  5949  5950    1  0.0000000000      0.0000000000       1
     5964  5948  5949  5951    1  180.0000000000    1.0041600000       2
     5964  5948  5949  5959    1  180.0000000000    1.0041600000       2
     5946  5948  5964  5951    1  180.0000000000    15.1670000000      2
     5946  5948  5964  5965    1  180.0000000000    15.1670000000      2
     5949  5948  5964  5951    1  180.0000000000    15.1670000000      2
     5949  5948  5964  5965    1  180.0000000000    15.1670000000      2
     5422  5424  5426  5427    1  0.0000000000      0.5439200000       3
     5422  5424  5426  5428    1  0.0000000000      0.6508444444       3
     5422  5424  5426  5442    1  0.0000000000      2.1756800000       3
     5425  5424  5426  5427    1  0.0000000000      0.5020800000       3
     5425  5424  5426  5428    1  0.0000000000      0.6508444444       3
     5425  5424  5426  5442    1  0.0000000000      0.5439200000       3
     5446  5424  5426  5427    1  0.0000000000      0.5439200000       3
     5446  5424  5426  5428    1  0.0000000000      0.6508444444       3
     5446  5424  5426  5442    1  0.0000000000      2.1756800000       3
     5422  5424  5446  5444    1  0.0000000000      0.6508444444       3
     5422  5424  5446  5447    1  0.0000000000      0.6508444444       3
     5422  5424  5446  5448    1  0.0000000000      0.6508444444       3
     5425  5424  5446  5444    1  0.0000000000      0.5439200000       3
     5425  5424  5446  5447    1  0.0000000000      0.5020800000       3
     5425  5424  5446  5448    1  0.0000000000      0.5020800000       3
     5426  5424  5446  5444    1  0.0000000000      0.6508444444       3
     5426  5424  5446  5447    1  0.0000000000      0.6508444444       3
     5426  5424  5446  5448    1  0.0000000000      0.6508444444       3
     5969  5971  5972  5973    1  0.0000000000      0.0000000000       1
     5969  5971  5972  5974    1  180.0000000000    1.0041600000       2
     5969  5971  5972  5996    1  180.0000000000    1.0041600000       2
     6001  5971  5972  5973    1  0.0000000000      0.0000000000       1
     6001  5971  5972  5974    1  180.0000000000    1.0041600000       2
     6001  5971  5972  5996    1  180.0000000000    1.0041600000       2
     5969  5971  6001  5974    1  180.0000000000    15.1670000000      2
     5969  5971  6001  6002    1  180.0000000000    15.1670000000      2
     5972  5971  6001  5974    1  180.0000000000    15.1670000000      2
     5972  5971  6001  6002    1  180.0000000000    15.1670000000      2
     5436  5437  5428  5426    1  180.0000000000    15.1670000000      2
     5428  5437  5438  5439    1  0.0000000000      0.0000000000       2
     5428  5437  5438  5440    1  0.0000000000      0.0000000000       2
     5428  5437  5438  5441    1  0.0000000000      0.0000000000       2
     5438  5437  5436  5435    1  180.0000000000    15.1670000000      2
     5428  5437  5436  3680    1  180.0000000000    15.1670000000      2
     5438  5437  5436  3680    1  180.0000000000    15.1670000000      2
     5430  5435  5436  5437    1  180.0000000000    15.1670000000      2
     3678  5435  5436  3680    1  180.0000000000    15.1670000000      2
     5430  5435  3678  3676    1  180.0000000000    1.0041600000       2
     5436  5435  3678  3676    1  180.0000000000    1.0041600000       2
     5430  5435  3678  3679    1  0.0000000000      0.0000000000       1
     5436  5435  3678  3679    1  0.0000000000      0.0000000000       1
     5430  5435  3678  3680    1  180.0000000000    1.0041600000       2
     5436  5435  3678  3680    1  180.0000000000    1.0041600000       2
     5430  5435  5436  3680    1  180.0000000000    15.1670000000      2
     5426  5442  5444  5420    1  0.0000000000      2.1756800000       3
     5426  5442  5444  5445    1  0.0000000000      0.5439200000       3
     5426  5442  5444  5446    1  0.0000000000      2.1756800000       3
     5429  5442  5444  5420    1  0.0000000000      0.6508444444       3
     5429  5442  5444  5445    1  0.0000000000      0.6508444444       3
     5429  5442  5444  5446    1  0.0000000000      0.6508444444       3
     5443  5442  5444  5420    1  0.0000000000      0.5439200000       3
     5443  5442  5444  5445    1  0.0000000000      0.5020800000       3
     5443  5442  5444  5446    1  0.0000000000      0.5439200000       3
     5971  5972  5974  5975    1  0.0000000000      0.6508444444       3
     5971  5972  5974  5976    1  0.0000000000      0.6508444444       3
     5971  5972  5974  6001    1  0.0000000000      0.6508444444       3
     5973  5972  5974  5975    1  0.0000000000      0.6508444444       3
     5973  5972  5974  5976    1  0.0000000000      0.6508444444       3
     5973  5972  5974  6001    1  0.0000000000      0.6508444444       3
     5996  5972  5974  5975    1  0.0000000000      0.6508444444       3
     5996  5972  5974  5976    1  0.0000000000      0.6508444444       3
     5996  5972  5974  6001    1  0.0000000000      0.6508444444       3
     5971  5972  5996  5994    1  0.0000000000      0.6508444444       3
     5971  5972  5996  5997    1  0.0000000000      0.6508444444       3
     5971  5972  5996  5998    1  0.0000000000      0.6508444444       3
     5973  5972  5996  5994    1  0.0000000000      0.5439200000       3
     5973  5972  5996  5997    1  0.0000000000      0.5020800000       3
     5973  5972  5996  5998    1  0.0000000000      0.5439200000       3
     5974  5972  5996  5994    1  0.0000000000      2.1756800000       3
     5974  5972  5996  5997    1  0.0000000000      0.5439200000       3
     5974  5972  5996  5998    1  0.0000000000      2.1756800000       3
     5972  5996  5998  5976    1  0.0000000000      0.6508444444       3
     5972  5996  5998  5999    1  0.0000000000      0.6508444444       3
     5972  5996  5998  6000    1  0.0000000000      0.6508444444       3
     5994  5996  5998  5976    1  0.0000000000      0.6508444444       3
     5994  5996  5998  5999    1  0.0000000000      0.6508444444       3
     5994  5996  5998  6000    1  0.0000000000      0.6508444444       3
     5997  5996  5998  5976    1  0.0000000000      0.5439200000       3
     5997  5996  5998  5999    1  0.0000000000      0.5020800000       3
     5997  5996  5998  6000    1  0.0000000000      0.5020800000       3
     5435  5436  5437  5428    1  180.0000000000    15.1670000000      2
     5437  5436  5435  3678    1  180.0000000000    15.1670000000      2
     5435  5436  3680  3678    1  180.0000000000    1.0041600000       2
     5437  5436  3680  3678    1  180.0000000000    1.0041600000       2
     5435  5436  3680  3681    1  0.0000000000      0.0000000000       1
     5437  5436  3680  3681    1  0.0000000000      0.0000000000       1
     5435  5436  3680  3682    1  180.0000000000    1.0041600000       2
     5437  5436  3680  3682    1  180.0000000000    1.0041600000       2
     1211  1235  1237  1215    1  0.0000000000      0.6508444444       3
     1211  1235  1237  1238    1  0.0000000000      0.6508444444       3
     1211  1235  1237  1239    1  0.0000000000      0.6508444444       3
     1233  1235  1237  1215    1  0.0000000000      0.6508444444       3
     1233  1235  1237  1238    1  0.0000000000      0.6508444444       3
     1233  1235  1237  1239    1  0.0000000000      0.6508444444       3
     1236  1235  1237  1215    1  0.0000000000      0.5439200000       3
     1236  1235  1237  1238    1  0.0000000000      0.5020800000       3
     1236  1235  1237  1239    1  0.0000000000      0.5020800000       3
     4316  4340  4342  4320    1  0.0000000000      0.6508444444       3
     4316  4340  4342  4343    1  0.0000000000      0.6508444444       3
     4316  4340  4342  4344    1  0.0000000000      0.6508444444       3
     4338  4340  4342  4320    1  0.0000000000      0.6508444444       3
     4338  4340  4342  4343    1  0.0000000000      0.6508444444       3
     4338  4340  4342  4344    1  0.0000000000      0.6508444444       3
     4341  4340  4342  4320    1  0.0000000000      0.5439200000       3
     4341  4340  4342  4343    1  0.0000000000      0.5020800000       3
     4341  4340  4342  4344    1  0.0000000000      0.5020800000       3
     5987  5982  5981  5994    1  180.0000000000    15.1670000000      2
     5981  5982  5983  5984    1  0.0000000000      0.0000000000       2
     5981  5982  5983  5985    1  0.0000000000      0.0000000000       2
     5981  5982  5983  5986    1  0.0000000000      0.0000000000       2
     5981  5982  5987  5988    1  180.0000000000    15.1670000000      2
     5983  5982  5987  5988    1  180.0000000000    15.1670000000      2
     5981  5982  5987  4437    1  180.0000000000    15.1670000000      2
     5983  5982  5987  4437    1  180.0000000000    15.1670000000      2
     4435  4437  4439  4440    1  0.0000000000      0.6508444444       3
     4435  4437  4439  4441    1  0.0000000000      0.6508444444       3
     4438  4437  4439  4440    1  0.0000000000      0.6508444444       3
     5987  4437  4439  4440    1  0.0000000000      0.6508444444       3
     5987  4437  4439  5988    1  0.0000000000      0.6508444444       3
     4435  4437  4439  5988    1  0.0000000000      0.6508444444       3
     4322  4338  4340  4316    1  0.0000000000      2.1756800000       3
     4322  4338  4340  4341    1  0.0000000000      0.5439200000       3
     4322  4338  4340  4342    1  0.0000000000      2.1756800000       3
     4325  4338  4340  4316    1  0.0000000000      0.6508444444       3
     4325  4338  4340  4341    1  0.0000000000      0.6508444444       3
     4325  4338  4340  4342    1  0.0000000000      0.6508444444       3
     4339  4338  4340  4316    1  0.0000000000      0.5439200000       3
     4339  4338  4340  4341    1  0.0000000000      0.5020800000       3
     4339  4338  4340  4342    1  0.0000000000      0.5439200000       3
     5945  5967  5968  5939    1  180.0000000000    15.1670000000      2
     5945  5967  5968  5969    1  180.0000000000    15.1670000000      2
     6002  5967  5968  5939    1  180.0000000000    15.1670000000      2
     6002  5967  5968  5969    1  180.0000000000    15.1670000000      2
     5945  5967  6002  6001    1  180.0000000000    15.1670000000      2
     5945  5967  6002  6003    1  180.0000000000    15.1670000000      2
     5968  5967  6002  6001    1  180.0000000000    15.1670000000      2
     5968  5967  6002  6003    1  180.0000000000    15.1670000000      2
     5988  5989  5980  5978    1  180.0000000000    15.1670000000      2
     5990  5989  5988  5987    1  180.0000000000    15.1670000000      2
     5980  5989  5990  5991    1  0.0000000000      0.0000000000       2
     5980  5989  5990  5992    1  0.0000000000      0.0000000000       2
     5980  5989  5990  5993    1  0.0000000000      0.0000000000       2
     5980  5989  5988  4439    1  180.0000000000    15.1670000000      2
     5990  5989  5988  4439    1  180.0000000000    15.1670000000      2
     5976  5978  5980  5981    1  180.0000000000    1.0041600000       2
     5976  5978  5980  5989    1  180.0000000000    1.0041600000       2
     5979  5978  5980  5981    1  0.0000000000      0.0000000000       1
     5979  5978  5980  5989    1  0.0000000000      0.0000000000       1
     5994  5978  5980  5981    1  180.0000000000    1.0041600000       2
     5994  5978  5980  5989    1  180.0000000000    1.0041600000       2
     5976  5978  5994  5981    1  0.0000000000      0.6508444444       3
     5976  5978  5994  5995    1  0.0000000000      0.6508444444       3
     5976  5978  5994  5996    1  0.0000000000      0.6508444444       3
     5979  5978  5994  5981    1  0.0000000000      0.6508444444       3
     5979  5978  5994  5995    1  0.0000000000      0.6508444444       3
     5979  5978  5994  5996    1  0.0000000000      0.6508444444       3
     5980  5978  5994  5981    1  0.0000000000      0.6508444444       3
     5980  5978  5994  5995    1  0.0000000000      0.6508444444       3
     5980  5978  5994  5996    1  0.0000000000      0.6508444444       3
     5435  5430  5429  5442    1  180.0000000000    15.1670000000      2
     5429  5430  5431  5432    1  0.0000000000      0.0000000000       2
     5429  5430  5431  5433    1  0.0000000000      0.0000000000       2
     5429  5430  5431  5434    1  0.0000000000      0.0000000000       2
     5429  5430  5435  5436    1  180.0000000000    15.1670000000      2
     5431  5430  5435  5436    1  180.0000000000    15.1670000000      2
     5429  5430  5435  3678    1  180.0000000000    15.1670000000      2
     5431  5430  5435  3678    1  180.0000000000    15.1670000000      2
     5945  5946  5948  5949    1  180.0000000000    15.1670000000      2
     5945  5946  5948  5964    1  180.0000000000    15.1670000000      2
     5947  5946  5948  5949    1  180.0000000000    15.1670000000      2
     5947  5946  5948  5964    1  180.0000000000    15.1670000000      2
     5420  5422  5424  5425    1  0.0000000000      0.5439200000       3
     5420  5422  5424  5426    1  0.0000000000      2.1756800000       3
     5420  5422  5424  5446    1  0.0000000000      2.1756800000       3
     5423  5422  5424  5425    1  0.0000000000      0.5020800000       3
     5423  5422  5424  5426    1  0.0000000000      0.5439200000       3
     5423  5422  5424  5446    1  0.0000000000      0.5439200000       3
     5449  5422  5424  5425    1  0.0000000000      0.6508444444       3
     5449  5422  5424  5426    1  0.0000000000      0.6508444444       3
     5449  5422  5424  5446    1  0.0000000000      0.6508444444       3
     5420  5422  5449  5419    1  180.0000000000    1.0041600000       2
     5420  5422  5449  5450    1  180.0000000000    1.0041600000       2
     5423  5422  5449  5419    1  0.0000000000      0.0000000000       1
     5423  5422  5449  5450    1  0.0000000000      0.0000000000       1
     5424  5422  5449  5419    1  180.0000000000    1.0041600000       2
     5424  5422  5449  5450    1  180.0000000000    1.0041600000       2
     5974  5976  5978  5979    1  0.0000000000      0.5439200000       3
     5974  5976  5978  5980    1  0.0000000000      0.6508444444       3
     5974  5976  5978  5994    1  0.0000000000      2.1756800000       3
     5977  5976  5978  5979    1  0.0000000000      0.5020800000       3
     5977  5976  5978  5980    1  0.0000000000      0.6508444444       3
     5977  5976  5978  5994    1  0.0000000000      0.5439200000       3
     5998  5976  5978  5979    1  0.0000000000      0.5439200000       3
     5998  5976  5978  5980    1  0.0000000000      0.6508444444       3
     5998  5976  5978  5994    1  0.0000000000      2.1756800000       3
     5974  5976  5998  5996    1  0.0000000000      0.6508444444       3
     5974  5976  5998  5999    1  0.0000000000      0.6508444444       3
     5974  5976  5998  6000    1  0.0000000000      0.6508444444       3
     5977  5976  5998  5996    1  0.0000000000      0.5439200000       3
     5977  5976  5998  5999    1  0.0000000000      0.5020800000       3
     5977  5976  5998  6000    1  0.0000000000      0.5020800000       3
     5978  5976  5998  5996    1  0.0000000000      0.6508444444       3
     5978  5976  5998  5999    1  0.0000000000      0.6508444444       3
     5978  5976  5998  6000    1  0.0000000000      0.6508444444       3
     1942  1943  1944  1945    1  180.0000000000    15.1670000000      2
     1942  1943  1944  1946    1  180.0000000000    15.1670000000      2
     1965  1943  1944  1945    1  180.0000000000    15.1670000000      2
     1965  1943  1944  1946    1  180.0000000000    15.1670000000      2
     1942  1943  1965  1966    1  180.0000000000    4.1840000000       2
     1942  1943  1965  2000    1  180.0000000000    4.1840000000       2
     1944  1943  1965  1966    1  180.0000000000    4.1840000000       2
     1944  1943  1965  2000    1  180.0000000000    4.1840000000       2
     1943  1944  1946  1947    1  180.0000000000    15.1670000000      2
     1943  1944  1946  1962    1  180.0000000000    15.1670000000      2
     1945  1944  1946  1947    1  180.0000000000    15.1670000000      2
     1945  1944  1946  1962    1  180.0000000000    15.1670000000      2
     1944  1946  1947  1948    1  0.0000000000      0.0000000000       1
     1944  1946  1947  1949    1  180.0000000000    1.0041600000       2
     1944  1946  1947  1957    1  180.0000000000    1.0041600000       2
     1962  1946  1947  1948    1  0.0000000000      0.0000000000       1
     1962  1946  1947  1949    1  180.0000000000    1.0041600000       2
     1962  1946  1947  1957    1  180.0000000000    1.0041600000       2
     1944  1946  1962  1949    1  180.0000000000    15.1670000000      2
     1944  1946  1962  1963    1  180.0000000000    15.1670000000      2
     1947  1946  1962  1949    1  180.0000000000    15.1670000000      2
     1947  1946  1962  1963    1  180.0000000000    15.1670000000      2
     1946  1962  1963  1942    1  180.0000000000    15.1670000000      2
     1946  1962  1963  1964    1  180.0000000000    15.1670000000      2
     1949  1962  1963  1942    1  180.0000000000    15.1670000000      2
     1949  1962  1963  1964    1  180.0000000000    15.1670000000      2
     1946  1947  1949  1950    1  0.0000000000      0.6508444444       3
     1946  1947  1949  1951    1  0.0000000000      0.6508444444       3
     1946  1947  1949  1962    1  0.0000000000      0.6508444444       3
     1948  1947  1949  1950    1  0.0000000000      0.6508444444       3
     1948  1947  1949  1951    1  0.0000000000      0.6508444444       3
     1948  1947  1949  1962    1  0.0000000000      0.6508444444       3
     1957  1947  1949  1950    1  0.0000000000      0.6508444444       3
     1957  1947  1949  1951    1  0.0000000000      0.6508444444       3
     1957  1947  1949  1962    1  0.0000000000      0.6508444444       3
     1946  1947  1957  1958    1  0.0000000000      0.6508444444       3
     1946  1947  1957  1959    1  0.0000000000      0.6508444444       3
     1948  1947  1957  1958    1  0.0000000000      0.5020800000       3
     1948  1947  1957  1959    1  0.0000000000      0.5439200000       3
     1949  1947  1957  1958    1  0.0000000000      0.5439200000       3
     1949  1947  1957  1959    1  0.0000000000      2.1756800000       3
     6386  6388  6390  6391    1  0.0000000000      0.5439200000       3
     6386  6388  6390  6392    1  0.0000000000      2.1756800000       3
     6386  6388  6390  6412    1  0.0000000000      2.1756800000       3
     6389  6388  6390  6391    1  0.0000000000      0.5020800000       3
     6389  6388  6390  6392    1  0.0000000000      0.5439200000       3
     6389  6388  6390  6412    1  0.0000000000      0.5439200000       3
     6415  6388  6390  6391    1  0.0000000000      0.6508444444       3
     6415  6388  6390  6392    1  0.0000000000      0.6508444444       3
     6415  6388  6390  6412    1  0.0000000000      0.6508444444       3
     6386  6388  6415  6385    1  180.0000000000    1.0041600000       2
     6386  6388  6415  6416    1  180.0000000000    1.0041600000       2
     6389  6388  6415  6385    1  0.0000000000      0.0000000000       1
     6389  6388  6415  6416    1  0.0000000000      0.0000000000       1
     6390  6388  6415  6385    1  180.0000000000    1.0041600000       2
     6390  6388  6415  6416    1  180.0000000000    1.0041600000       2
     1543  1541  1539  1540    1  0.0000000000      0.6508444444       3
     5229  1541  1539  1540    1  0.0000000000      0.6508444444       3
     5229  1541  1539  5228    1  0.0000000000      0.6508444444       3
     1543  1541  1539  5228    1  0.0000000000      0.6508444444       3
     1532  1533  1535  1536    1  0.0000000000      0.6508444444       3
     1532  1533  1535  1537    1  0.0000000000      0.6508444444       3
     1532  1533  1535  1548    1  0.0000000000      0.6508444444       3
     1534  1533  1535  1536    1  0.0000000000      0.6508444444       3
     1534  1533  1535  1537    1  0.0000000000      0.6508444444       3
     1534  1533  1535  1548    1  0.0000000000      0.6508444444       3
     1543  1533  1535  1536    1  0.0000000000      0.6508444444       3
     1543  1533  1535  1537    1  0.0000000000      0.6508444444       3
     1543  1533  1535  1548    1  0.0000000000      0.6508444444       3
     1532  1533  1543  1544    1  0.0000000000      0.6508444444       3
     1532  1533  1543  1545    1  0.0000000000      0.6508444444       3
     1534  1533  1543  1544    1  0.0000000000      0.5020800000       3
     1534  1533  1543  1545    1  0.0000000000      0.5439200000       3
     1535  1533  1543  1544    1  0.0000000000      0.5439200000       3
     1535  1533  1543  1545    1  0.0000000000      2.1756800000       3
     1955  1957  1947  1946    1  0.0000000000      0.6508444444       3
     1955  1957  1947  1948    1  0.0000000000      0.5439200000       3
     1955  1957  1947  1949    1  0.0000000000      2.1756800000       3
     1947  1957  1955  1953    1  0.0000000000      2.1756800000       3
     1958  1957  1955  1953    1  0.0000000000      0.5439200000       3
     1959  1957  1955  1953    1  0.0000000000      2.1756800000       3
     1947  1957  1955  1956    1  0.0000000000      0.5439200000       3
     1958  1957  1955  1956    1  0.0000000000      0.5020800000       3
     1959  1957  1955  1956    1  0.0000000000      0.5439200000       3
     1947  1957  1959  1951    1  0.0000000000      0.6508444444       3
     1947  1957  1959  1960    1  0.0000000000      0.6508444444       3
     1947  1957  1959  1961    1  0.0000000000      0.6508444444       3
     1955  1957  1959  1960    1  0.0000000000      0.6508444444       3
     1955  1957  1959  1961    1  0.0000000000      0.6508444444       3
     1958  1957  1959  1951    1  0.0000000000      0.5439200000       3
     1958  1957  1959  1960    1  0.0000000000      0.5020800000       3
     1958  1957  1959  1961    1  0.0000000000      0.5020800000       3
     1947  1957  1955  6126    1  0.0000000000      0.6508444444       3
     1958  1957  1955  6126    1  0.0000000000      0.6508444444       3
     1959  1957  1955  6126    1  0.0000000000      0.6508444444       3
     1947  1949  1951  1952    1  0.0000000000      0.5439200000       3
     1947  1949  1951  1959    1  0.0000000000      2.1756800000       3
     1950  1949  1951  1952    1  0.0000000000      0.5020800000       3
     1950  1949  1951  1959    1  0.0000000000      0.5439200000       3
     1962  1949  1951  1952    1  0.0000000000      0.6508444444       3
     1962  1949  1951  1959    1  0.0000000000      0.6508444444       3
     1947  1949  1962  1946    1  180.0000000000    1.0041600000       2
     1947  1949  1962  1963    1  180.0000000000    1.0041600000       2
     1950  1949  1962  1946    1  0.0000000000      0.0000000000       1
     1950  1949  1962  1963    1  0.0000000000      0.0000000000       1
     1951  1949  1962  1946    1  180.0000000000    1.0041600000       2
     1951  1949  1962  1963    1  180.0000000000    1.0041600000       2
     1943  1965  1966  1937    1  180.0000000000    15.1670000000      2
     1943  1965  1966  1967    1  180.0000000000    15.1670000000      2
     2000  1965  1966  1937    1  180.0000000000    15.1670000000      2
     2000  1965  1966  1967    1  180.0000000000    15.1670000000      2
     1943  1965  2000  1999    1  180.0000000000    15.1670000000      2
     1943  1965  2000  2001    1  180.0000000000    15.1670000000      2
     1966  1965  2000  1999    1  180.0000000000    15.1670000000      2
     1966  1965  2000  2001    1  180.0000000000    15.1670000000      2
     1530  1532  1533  1534    1  0.0000000000      0.0000000000       1
     1530  1532  1533  1535    1  180.0000000000    1.0041600000       2
     1530  1532  1533  1543    1  180.0000000000    1.0041600000       2
     1548  1532  1533  1534    1  0.0000000000      0.0000000000       1
     1548  1532  1533  1535    1  180.0000000000    1.0041600000       2
     1548  1532  1533  1543    1  180.0000000000    1.0041600000       2
     1530  1532  1548  1535    1  180.0000000000    15.1670000000      2
     1530  1532  1548  1549    1  180.0000000000    15.1670000000      2
     1533  1532  1548  1535    1  180.0000000000    15.1670000000      2
     1533  1532  1548  1549    1  180.0000000000    15.1670000000      2
     1957  1959  1951  1953    1  0.0000000000      0.6508444444       3
     1951  1959  1957  1955    1  0.0000000000      0.6508444444       3
     1541  1543  1533  1532    1  0.0000000000      0.6508444444       3
     1541  1543  1533  1534    1  0.0000000000      0.5439200000       3
     1541  1543  1533  1535    1  0.0000000000      2.1756800000       3
     1533  1543  1541  1539    1  0.0000000000      2.1756800000       3
     1544  1543  1541  1539    1  0.0000000000      0.5439200000       3
     1545  1543  1541  1539    1  0.0000000000      2.1756800000       3
     1533  1543  1541  1542    1  0.0000000000      0.5439200000       3
     1544  1543  1541  1542    1  0.0000000000      0.5020800000       3
     1545  1543  1541  1542    1  0.0000000000      0.5439200000       3
     1533  1543  1545  1537    1  0.0000000000      0.6508444444       3
     1533  1543  1545  1546    1  0.0000000000      0.6508444444       3
     1533  1543  1545  1547    1  0.0000000000      0.6508444444       3
     1541  1543  1545  1546    1  0.0000000000      0.6508444444       3
     1541  1543  1545  1547    1  0.0000000000      0.6508444444       3
     1544  1543  1545  1537    1  0.0000000000      0.5439200000       3
     1544  1543  1545  1546    1  0.0000000000      0.5020800000       3
     1544  1543  1545  1547    1  0.0000000000      0.5020800000       3
     1533  1543  1541  5229    1  0.0000000000      0.6508444444       3
     1544  1543  1541  5229    1  0.0000000000      0.6508444444       3
     1545  1543  1541  5229    1  0.0000000000      0.6508444444       3
     1953  1951  1949  1947    1  0.0000000000      2.1756800000       3
     1953  1951  1949  1950    1  0.0000000000      0.5439200000       3
     1953  1951  1949  1962    1  0.0000000000      0.6508444444       3
     1949  1951  1953  1954    1  0.0000000000      0.5439200000       3
     1949  1951  1953  1955    1  0.0000000000      2.1756800000       3
     1952  1951  1953  1954    1  0.0000000000      0.5020800000       3
     1952  1951  1953  1955    1  0.0000000000      0.5439200000       3
     1959  1951  1953  1954    1  0.0000000000      0.5439200000       3
     1959  1951  1953  1955    1  0.0000000000      2.1756800000       3
     1949  1951  1959  1957    1  0.0000000000      0.6508444444       3
     1949  1951  1959  1960    1  0.0000000000      0.6508444444       3
     1949  1951  1959  1961    1  0.0000000000      0.6508444444       3
     1952  1951  1959  1957    1  0.0000000000      0.5439200000       3
     1952  1951  1959  1960    1  0.0000000000      0.5020800000       3
     1952  1951  1959  1961    1  0.0000000000      0.5020800000       3
     1953  1951  1959  1960    1  0.0000000000      0.6508444444       3
     1953  1951  1959  1961    1  0.0000000000      0.6508444444       3
     1949  1951  1953  6125    1  0.0000000000      0.6508444444       3
     1952  1951  1953  6125    1  0.0000000000      0.6508444444       3
     1959  1951  1953  6125    1  0.0000000000      0.6508444444       3
     1543  1545  1537  1539    1  0.0000000000      0.6508444444       3
     1537  1545  1543  1541    1  0.0000000000      0.6508444444       3
     5228  5229  5230  5221    1  180.0000000000    15.1670000000      2
     1541  5229  5228  1539    1  180.0000000000    15.1670000000      2
     5228  5229  1541  1539    1  180.0000000000    1.0041600000       2
     5230  5229  1541  1539    1  180.0000000000    1.0041600000       2
     5228  5229  1541  1542    1  0.0000000000      0.0000000000       1
     5230  5229  1541  1542    1  0.0000000000      0.0000000000       1
     5228  5229  1541  1543    1  180.0000000000    1.0041600000       2
     5230  5229  1541  1543    1  180.0000000000    1.0041600000       2
     5230  5229  5228  1539    1  180.0000000000    15.1670000000      2
     6388  6390  6392  6393    1  0.0000000000      0.5439200000       3
     6388  6390  6392  6394    1  0.0000000000      0.6508444444       3
     6388  6390  6392  6408    1  0.0000000000      2.1756800000       3
     6391  6390  6392  6393    1  0.0000000000      0.5020800000       3
     6391  6390  6392  6394    1  0.0000000000      0.6508444444       3
     6391  6390  6392  6408    1  0.0000000000      0.5439200000       3
     6412  6390  6392  6393    1  0.0000000000      0.5439200000       3
     6412  6390  6392  6394    1  0.0000000000      0.6508444444       3
     6412  6390  6392  6408    1  0.0000000000      2.1756800000       3
     6388  6390  6412  6410    1  0.0000000000      0.6508444444       3
     6388  6390  6412  6413    1  0.0000000000      0.6508444444       3
     6388  6390  6412  6414    1  0.0000000000      0.6508444444       3
     6391  6390  6412  6410    1  0.0000000000      0.5439200000       3
     6391  6390  6412  6413    1  0.0000000000      0.5020800000       3
     6391  6390  6412  6414    1  0.0000000000      0.5020800000       3
     6392  6390  6412  6410    1  0.0000000000      0.6508444444       3
     6392  6390  6412  6413    1  0.0000000000      0.6508444444       3
     6392  6390  6412  6414    1  0.0000000000      0.6508444444       3
     6385  6386  6388  6389    1  0.0000000000      0.6508444444       3
     6385  6386  6388  6390    1  0.0000000000      0.6508444444       3
     6385  6386  6388  6415    1  0.0000000000      0.6508444444       3
     6387  6386  6388  6389    1  0.0000000000      0.6508444444       3
     6387  6386  6388  6390    1  0.0000000000      0.6508444444       3
     6387  6386  6388  6415    1  0.0000000000      0.6508444444       3
     6410  6386  6388  6389    1  0.0000000000      0.6508444444       3
     6410  6386  6388  6390    1  0.0000000000      0.6508444444       3
     6410  6386  6388  6415    1  0.0000000000      0.6508444444       3
     6385  6386  6410  6408    1  0.0000000000      0.6508444444       3
     6385  6386  6410  6411    1  0.0000000000      0.6508444444       3
     6385  6386  6410  6412    1  0.0000000000      0.6508444444       3
     6387  6386  6410  6408    1  0.0000000000      0.5439200000       3
     6387  6386  6410  6411    1  0.0000000000      0.5020800000       3
     6387  6386  6410  6412    1  0.0000000000      0.5439200000       3
     6388  6386  6410  6408    1  0.0000000000      2.1756800000       3
     6388  6386  6410  6411    1  0.0000000000      0.5439200000       3
     6388  6386  6410  6412    1  0.0000000000      2.1756800000       3
     1532  1548  1549  1528    1  180.0000000000    15.1670000000      2
     1532  1548  1549  1550    1  180.0000000000    15.1670000000      2
     1535  1548  1549  1528    1  180.0000000000    15.1670000000      2
     1535  1548  1549  1550    1  180.0000000000    15.1670000000      2
     6383  6385  6386  6387    1  0.0000000000      0.0000000000       1
     6383  6385  6386  6388    1  180.0000000000    1.0041600000       2
     6383  6385  6386  6410    1  180.0000000000    1.0041600000       2
     6415  6385  6386  6387    1  0.0000000000      0.0000000000       1
     6415  6385  6386  6388    1  180.0000000000    1.0041600000       2
     6415  6385  6386  6410    1  180.0000000000    1.0041600000       2
     6383  6385  6415  6388    1  180.0000000000    15.1670000000      2
     6383  6385  6415  6416    1  180.0000000000    15.1670000000      2
     6386  6385  6415  6388    1  180.0000000000    15.1670000000      2
     6386  6385  6415  6416    1  180.0000000000    15.1670000000      2
     1537  1539  1541  1542    1  0.0000000000      0.6508444444       3
     1537  1539  1541  1543    1  0.0000000000      0.6508444444       3
     1540  1539  1541  1542    1  0.0000000000      0.6508444444       3
     1537  1539  1541  5229    1  0.0000000000      0.6508444444       3
     5228  1539  1541  1542    1  0.0000000000      0.6508444444       3
     6392  6408  6410  6386    1  0.0000000000      2.1756800000       3
     6392  6408  6410  6411    1  0.0000000000      0.5439200000       3
     6392  6408  6410  6412    1  0.0000000000      2.1756800000       3
     6395  6408  6410  6386    1  0.0000000000      0.6508444444       3
     6395  6408  6410  6411    1  0.0000000000      0.6508444444       3
     6395  6408  6410  6412    1  0.0000000000      0.6508444444       3
     6409  6408  6410  6386    1  0.0000000000      0.5439200000       3
     6409  6408  6410  6411    1  0.0000000000      0.5020800000       3
     6409  6408  6410  6412    1  0.0000000000      0.5439200000       3
     1937  1942  1943  1944    1  180.0000000000    15.1670000000      2
     1937  1942  1943  1965    1  180.0000000000    15.1670000000      2
     1963  1942  1943  1944    1  180.0000000000    15.1670000000      2
     1963  1942  1943  1965    1  180.0000000000    15.1670000000      2
     1937  1942  1963  1962    1  180.0000000000    15.1670000000      2
     1937  1942  1963  1964    1  180.0000000000    15.1670000000      2
     1943  1942  1963  1962    1  180.0000000000    15.1670000000      2
     1943  1942  1963  1964    1  180.0000000000    15.1670000000      2
     1969  1999  2000  1965    1  180.0000000000    15.1670000000      2
     1969  1999  2000  2001    1  180.0000000000    15.1670000000      2
     1972  1999  2000  1965    1  180.0000000000    15.1670000000      2
     1972  1999  2000  2001    1  180.0000000000    15.1670000000      2
     1974  1976  1978  1979    1  180.0000000000    1.0041600000       2
     1974  1976  1978  1987    1  180.0000000000    1.0041600000       2
     1977  1976  1978  1979    1  0.0000000000      0.0000000000       1
     1977  1976  1978  1987    1  0.0000000000      0.0000000000       1
     1992  1976  1978  1979    1  180.0000000000    1.0041600000       2
     1992  1976  1978  1987    1  180.0000000000    1.0041600000       2
     1974  1976  1992  1979    1  0.0000000000      0.6508444444       3
     1974  1976  1992  1993    1  0.0000000000      0.6508444444       3
     1974  1976  1992  1994    1  0.0000000000      0.6508444444       3
     1977  1976  1992  1979    1  0.0000000000      0.6508444444       3
     1977  1976  1992  1993    1  0.0000000000      0.6508444444       3
     1977  1976  1992  1994    1  0.0000000000      0.6508444444       3
     1978  1976  1992  1979    1  0.0000000000      0.6508444444       3
     1978  1976  1992  1993    1  0.0000000000      0.6508444444       3
     1978  1976  1992  1994    1  0.0000000000      0.6508444444       3
     1533  1535  1537  1538    1  0.0000000000      0.5439200000       3
     1533  1535  1537  1545    1  0.0000000000      2.1756800000       3
     1536  1535  1537  1538    1  0.0000000000      0.5020800000       3
     1536  1535  1537  1545    1  0.0000000000      0.5439200000       3
     1548  1535  1537  1538    1  0.0000000000      0.6508444444       3
     1548  1535  1537  1545    1  0.0000000000      0.6508444444       3
     1533  1535  1548  1532    1  180.0000000000    1.0041600000       2
     1533  1535  1548  1549    1  180.0000000000    1.0041600000       2
     1536  1535  1548  1532    1  0.0000000000      0.0000000000       1
     1536  1535  1548  1549    1  0.0000000000      0.0000000000       1
     1537  1535  1548  1532    1  180.0000000000    1.0041600000       2
     1537  1535  1548  1549    1  180.0000000000    1.0041600000       2
     1529  1530  1532  1533    1  180.0000000000    15.1670000000      2
     1529  1530  1532  1548    1  180.0000000000    15.1670000000      2
     1531  1530  1532  1533    1  180.0000000000    15.1670000000      2
     1531  1530  1532  1548    1  180.0000000000    15.1670000000      2
     6390  6392  6394  6395    1  180.0000000000    1.0041600000       2
     6390  6392  6394  6403    1  180.0000000000    1.0041600000       2
     6393  6392  6394  6395    1  0.0000000000      0.0000000000       1
     6393  6392  6394  6403    1  0.0000000000      0.0000000000       1
     6408  6392  6394  6395    1  180.0000000000    1.0041600000       2
     6408  6392  6394  6403    1  180.0000000000    1.0041600000       2
     6390  6392  6408  6395    1  0.0000000000      0.6508444444       3
     6390  6392  6408  6409    1  0.0000000000      0.6508444444       3
     6390  6392  6408  6410    1  0.0000000000      0.6508444444       3
     6393  6392  6408  6395    1  0.0000000000      0.6508444444       3
     6393  6392  6408  6409    1  0.0000000000      0.6508444444       3
     6393  6392  6408  6410    1  0.0000000000      0.6508444444       3
     6394  6392  6408  6395    1  0.0000000000      0.6508444444       3
     6394  6392  6408  6409    1  0.0000000000      0.6508444444       3
     6394  6392  6408  6410    1  0.0000000000      0.6508444444       3
     6385  6415  6416  6381    1  180.0000000000    15.1670000000      2
     6385  6415  6416  6417    1  180.0000000000    15.1670000000      2
     6388  6415  6416  6381    1  180.0000000000    15.1670000000      2
     6388  6415  6416  6417    1  180.0000000000    15.1670000000      2
     1976  1978  1979  1980    1  180.0000000000    15.1670000000      2
     1976  1978  1979  1992    1  180.0000000000    15.1670000000      2
     1987  1978  1979  1980    1  180.0000000000    15.1670000000      2
     1987  1978  1979  1992    1  180.0000000000    15.1670000000      2
     1976  1978  1987  1988    1  180.0000000000    15.1670000000      2
     1979  1978  1987  1986    1  180.0000000000    15.1670000000      2
     1979  1978  1987  1988    1  180.0000000000    15.1670000000      2
     1957  1955  1953  1954    1  0.0000000000      0.6508444444       3
     6126  1955  1953  1954    1  0.0000000000      0.6508444444       3
     6126  1955  1953  6125    1  0.0000000000      0.6508444444       3
     1957  1955  1953  6125    1  0.0000000000      0.6508444444       3
     6386  6410  6412  6390    1  0.0000000000      0.6508444444       3
     6386  6410  6412  6413    1  0.0000000000      0.6508444444       3
     6386  6410  6412  6414    1  0.0000000000      0.6508444444       3
     6408  6410  6412  6390    1  0.0000000000      0.6508444444       3
     6408  6410  6412  6413    1  0.0000000000      0.6508444444       3
     6408  6410  6412  6414    1  0.0000000000      0.6508444444       3
     6411  6410  6412  6390    1  0.0000000000      0.5439200000       3
     6411  6410  6412  6413    1  0.0000000000      0.5020800000       3
     6411  6410  6412  6414    1  0.0000000000      0.5020800000       3
     1934  1933  1937  1938    1  0.0000000000      0.5439200000       3
     1934  1933  1937  1942    1  0.0000000000      0.6508444444       3
     1934  1933  1937  1966    1  0.0000000000      0.6508444444       3
     1935  1933  1937  1938    1  0.0000000000      0.5439200000       3
     1935  1933  1937  1942    1  0.0000000000      0.6508444444       3
     1935  1933  1937  1966    1  0.0000000000      0.6508444444       3
     1936  1933  1937  1938    1  0.0000000000      0.5439200000       3
     1936  1933  1937  1942    1  0.0000000000      0.6508444444       3
     1936  1933  1937  1966    1  0.0000000000      0.6508444444       3
     5180  5209  5210  5211    1  180.0000000000    15.1670000000      2
     5180  5209  5210  5212    1  180.0000000000    15.1670000000      2
     5208  5209  5210  5211    1  180.0000000000    15.1670000000      2
     5208  5209  5210  5212    1  180.0000000000    15.1670000000      2
     1978  1979  1980  1981    1  180.0000000000    15.1670000000      2
     1978  1979  1980  1985    1  180.0000000000    15.1670000000      2
     1992  1979  1980  1981    1  180.0000000000    15.1670000000      2
     1978  1979  1992  1976    1  180.0000000000    1.0041600000       2
     1978  1979  1992  1993    1  0.0000000000      0.0000000000       1
     1978  1979  1992  1994    1  180.0000000000    1.0041600000       2
     1980  1979  1992  1976    1  180.0000000000    1.0041600000       2
     1980  1979  1992  1993    1  0.0000000000      0.0000000000       1
     1980  1979  1992  1994    1  180.0000000000    1.0041600000       2
     1988  1987  1986  1985    1  180.0000000000    15.1670000000      2
     1978  1987  1988  1989    1  0.0000000000      0.0000000000       2
     1978  1987  1988  1990    1  0.0000000000      0.0000000000       2
     1978  1987  1988  1991    1  0.0000000000      0.0000000000       2
     1986  1987  1978  1976    1  180.0000000000    15.1670000000      2
     1988  1987  1986  4092    1  180.0000000000    15.1670000000      2
     1978  1987  1986  4092    1  180.0000000000    15.1670000000      2
     5221  5222  5223  5224    1  180.0000000000    15.1670000000      2
     5221  5222  5223  5228    1  180.0000000000    15.1670000000      2
     5235  5222  5223  5224    1  180.0000000000    15.1670000000      2
     5221  5222  5235  5219    1  180.0000000000    1.0041600000       2
     5221  5222  5235  5236    1  0.0000000000      0.0000000000       1
     5221  5222  5235  5237    1  180.0000000000    1.0041600000       2
     5223  5222  5235  5219    1  180.0000000000    1.0041600000       2
     5223  5222  5235  5236    1  0.0000000000      0.0000000000       1
     5223  5222  5235  5237    1  180.0000000000    1.0041600000       2
     5223  5228  5229  5230    1  180.0000000000    15.1670000000      2
     5223  5228  5229  1541    1  180.0000000000    15.1670000000      2
     5223  5228  1539  1537    1  180.0000000000    1.0041600000       2
     5229  5228  1539  1537    1  180.0000000000    1.0041600000       2
     5223  5228  1539  1540    1  0.0000000000      0.0000000000       1
     5229  5228  1539  1540    1  0.0000000000      0.0000000000       1
     5223  5228  1539  1541    1  180.0000000000    1.0041600000       2
     5229  5228  1539  1541    1  180.0000000000    1.0041600000       2
     1194  1192  1190  1188    1  0.0000000000      2.1756800000       3
     1194  1192  1190  1191    1  0.0000000000      0.5439200000       3
     1194  1192  1190  1203    1  0.0000000000      0.6508444444       3
     1190  1192  1194  1195    1  0.0000000000      0.5439200000       3
     1190  1192  1194  1196    1  0.0000000000      2.1756800000       3
     1193  1192  1194  1195    1  0.0000000000      0.5020800000       3
     1193  1192  1194  1196    1  0.0000000000      0.5439200000       3
     1200  1192  1194  1195    1  0.0000000000      0.5439200000       3
     1200  1192  1194  1196    1  0.0000000000      2.1756800000       3
     1190  1192  1200  1198    1  0.0000000000      0.6508444444       3
     1190  1192  1200  1201    1  0.0000000000      0.6508444444       3
     1190  1192  1200  1202    1  0.0000000000      0.6508444444       3
     1193  1192  1200  1198    1  0.0000000000      0.5439200000       3
     1193  1192  1200  1201    1  0.0000000000      0.5020800000       3
     1193  1192  1200  1202    1  0.0000000000      0.5020800000       3
     1194  1192  1200  1201    1  0.0000000000      0.6508444444       3
     1194  1192  1200  1202    1  0.0000000000      0.6508444444       3
     1190  1192  1194  2469    1  0.0000000000      0.6508444444       3
     1193  1192  1194  2469    1  0.0000000000      0.6508444444       3
     1200  1192  1194  2469    1  0.0000000000      0.6508444444       3
     4326  4331  4332  4333    1  180.0000000000    15.1670000000      2
     4989  4331  4332  4991    1  180.0000000000    15.1670000000      2
     4332  4331  4989  4987    1  180.0000000000    1.0041600000       2
     4326  4331  4989  4987    1  180.0000000000    1.0041600000       2
     4332  4331  4989  4990    1  0.0000000000      0.0000000000       1
     4326  4331  4989  4990    1  0.0000000000      0.0000000000       1
     4332  4331  4989  4991    1  180.0000000000    1.0041600000       2
     4326  4331  4989  4991    1  180.0000000000    1.0041600000       2
     4326  4331  4332  4991    1  180.0000000000    15.1670000000      2
     1972  1974  1976  1977    1  0.0000000000      0.5439200000       3
     1972  1974  1976  1978    1  0.0000000000      0.6508444444       3
     1972  1974  1976  1992    1  0.0000000000      2.1756800000       3
     1975  1974  1976  1977    1  0.0000000000      0.5020800000       3
     1975  1974  1976  1978    1  0.0000000000      0.6508444444       3
     1975  1974  1976  1992    1  0.0000000000      0.5439200000       3
     1996  1974  1976  1977    1  0.0000000000      0.5439200000       3
     1996  1974  1976  1978    1  0.0000000000      0.6508444444       3
     1996  1974  1976  1992    1  0.0000000000      2.1756800000       3
     1972  1974  1996  1994    1  0.0000000000      0.6508444444       3
     1972  1974  1996  1997    1  0.0000000000      0.6508444444       3
     1972  1974  1996  1998    1  0.0000000000      0.6508444444       3
     1975  1974  1996  1994    1  0.0000000000      0.5439200000       3
     1975  1974  1996  1997    1  0.0000000000      0.5020800000       3
     1975  1974  1996  1998    1  0.0000000000      0.5020800000       3
     1976  1974  1996  1994    1  0.0000000000      0.6508444444       3
     1976  1974  1996  1997    1  0.0000000000      0.6508444444       3
     1976  1974  1996  1998    1  0.0000000000      0.6508444444       3
     5229  5230  5221  5219    1  180.0000000000    15.1670000000      2
     5231  5230  5229  5228    1  180.0000000000    15.1670000000      2
     5221  5230  5231  5232    1  0.0000000000      0.0000000000       2
     5221  5230  5231  5233    1  0.0000000000      0.0000000000       2
     5221  5230  5231  5234    1  0.0000000000      0.0000000000       2
     5221  5230  5229  1541    1  180.0000000000    15.1670000000      2
     5231  5230  5229  1541    1  180.0000000000    15.1670000000      2
     4982  4983  4985  4986    1  0.0000000000      0.6508444444       3
     4982  4983  4985  4987    1  0.0000000000      0.6508444444       3
     4982  4983  4985  4998    1  0.0000000000      0.6508444444       3
     4984  4983  4985  4986    1  0.0000000000      0.6508444444       3
     4984  4983  4985  4987    1  0.0000000000      0.6508444444       3
     4984  4983  4985  4998    1  0.0000000000      0.6508444444       3
     4993  4983  4985  4986    1  0.0000000000      0.6508444444       3
     4993  4983  4985  4987    1  0.0000000000      0.6508444444       3
     4993  4983  4985  4998    1  0.0000000000      0.6508444444       3
     4982  4983  4993  4994    1  0.0000000000      0.6508444444       3
     4982  4983  4993  4995    1  0.0000000000      0.6508444444       3
     4984  4983  4993  4994    1  0.0000000000      0.5020800000       3
     4984  4983  4993  4995    1  0.0000000000      0.5439200000       3
     4985  4983  4993  4994    1  0.0000000000      0.5439200000       3
     4985  4983  4993  4995    1  0.0000000000      2.1756800000       3
     5232  5231  5230  5229    1  0.0000000000      0.0000000000       2
     5233  5231  5230  5229    1  0.0000000000      0.0000000000       2
     5234  5231  5230  5229    1  0.0000000000      0.0000000000       2
     1976  1992  1994  1970    1  0.0000000000      2.1756800000       3
     1976  1992  1994  1995    1  0.0000000000      0.5439200000       3
     1976  1992  1994  1996    1  0.0000000000      2.1756800000       3
     1979  1992  1994  1970    1  0.0000000000      0.6508444444       3
     1979  1992  1994  1995    1  0.0000000000      0.6508444444       3
     1979  1992  1994  1996    1  0.0000000000      0.6508444444       3
     1993  1992  1994  1970    1  0.0000000000      0.5439200000       3
     1993  1992  1994  1995    1  0.0000000000      0.5020800000       3
     1993  1992  1994  1996    1  0.0000000000      0.5439200000       3
     1970  1972  1974  1975    1  0.0000000000      0.5439200000       3
     1970  1972  1974  1976    1  0.0000000000      2.1756800000       3
     1970  1972  1974  1996    1  0.0000000000      2.1756800000       3
     1973  1972  1974  1975    1  0.0000000000      0.5020800000       3
     1973  1972  1974  1976    1  0.0000000000      0.5439200000       3
     1973  1972  1974  1996    1  0.0000000000      0.5439200000       3
     1999  1972  1974  1975    1  0.0000000000      0.6508444444       3
     1999  1972  1974  1976    1  0.0000000000      0.6508444444       3
     1999  1972  1974  1996    1  0.0000000000      0.6508444444       3
     1970  1972  1999  1969    1  180.0000000000    1.0041600000       2
     1970  1972  1999  2000    1  180.0000000000    1.0041600000       2
     1973  1972  1999  1969    1  0.0000000000      0.0000000000       1
     1973  1972  1999  2000    1  0.0000000000      0.0000000000       1
     1974  1972  1999  1969    1  180.0000000000    1.0041600000       2
     1974  1972  1999  2000    1  180.0000000000    1.0041600000       2
     5219  5221  5222  5223    1  180.0000000000    15.1670000000      2
     5219  5221  5222  5235    1  180.0000000000    15.1670000000      2
     5230  5221  5222  5223    1  180.0000000000    15.1670000000      2
     5230  5221  5222  5235    1  180.0000000000    15.1670000000      2
     5219  5221  5230  5231    1  180.0000000000    15.1670000000      2
     5222  5221  5230  5229    1  180.0000000000    15.1670000000      2
     5222  5221  5230  5231    1  180.0000000000    15.1670000000      2
     1937  1966  1967  1968    1  180.0000000000    15.1670000000      2
     1937  1966  1967  1969    1  180.0000000000    15.1670000000      2
     1965  1966  1967  1968    1  180.0000000000    15.1670000000      2
     1965  1966  1967  1969    1  180.0000000000    15.1670000000      2
     1933  1937  1938  1939    1  0.0000000000      0.5439200000       3
     1933  1937  1938  1940    1  0.0000000000      0.5439200000       3
     1933  1937  1938  1941    1  0.0000000000      0.5439200000       3
     1942  1937  1938  1939    1  0.0000000000      0.6508444444       3
     1942  1937  1938  1940    1  0.0000000000      0.6508444444       3
     1942  1937  1938  1941    1  0.0000000000      0.6508444444       3
     1966  1937  1938  1939    1  0.0000000000      0.6508444444       3
     1966  1937  1938  1940    1  0.0000000000      0.6508444444       3
     1966  1937  1938  1941    1  0.0000000000      0.6508444444       3
     1933  1937  1942  1943    1  0.0000000000      0.0000000000       2
     1933  1937  1942  1963    1  180.0000000000    1.0041600000       2
     1938  1937  1942  1943    1  0.0000000000      0.0000000000       2
     1938  1937  1942  1963    1  180.0000000000    1.0041600000       2
     1966  1937  1942  1943    1  0.0000000000      0.0000000000       2
     1966  1937  1942  1963    1  180.0000000000    0.0000000000       2
     1933  1937  1966  1965    1  0.0000000000      0.0000000000       2
     1933  1937  1966  1967    1  180.0000000000    1.0041600000       2
     1938  1937  1966  1965    1  0.0000000000      0.0000000000       2
     1938  1937  1966  1967    1  180.0000000000    1.0041600000       2
     1942  1937  1966  1965    1  0.0000000000      0.0000000000       2
     1942  1937  1966  1967    1  180.0000000000    0.0000000000       2
     4987  4989  4991  4992    1  0.0000000000      0.6508444444       3
     4987  4989  4991  4993    1  0.0000000000      0.6508444444       3
     4990  4989  4991  4992    1  0.0000000000      0.6508444444       3
     4331  4989  4991  4992    1  0.0000000000      0.6508444444       3
     4331  4989  4991  4332    1  0.0000000000      0.6508444444       3
     4987  4989  4991  4332    1  0.0000000000      0.6508444444       3
     5212  5242  5243  5208    1  180.0000000000    15.1670000000      2
     5212  5242  5243  5244    1  180.0000000000    15.1670000000      2
     5215  5242  5243  5208    1  180.0000000000    15.1670000000      2
     5215  5242  5243  5244    1  180.0000000000    15.1670000000      2
     5213  5215  5217  5218    1  0.0000000000      0.5439200000       3
     5213  5215  5217  5219    1  0.0000000000      2.1756800000       3
     5213  5215  5217  5239    1  0.0000000000      2.1756800000       3
     5216  5215  5217  5218    1  0.0000000000      0.5020800000       3
     5216  5215  5217  5219    1  0.0000000000      0.5439200000       3
     5216  5215  5217  5239    1  0.0000000000      0.5439200000       3
     5242  5215  5217  5218    1  0.0000000000      0.6508444444       3
     5242  5215  5217  5219    1  0.0000000000      0.6508444444       3
     5242  5215  5217  5239    1  0.0000000000      0.6508444444       3
     5213  5215  5242  5212    1  180.0000000000    1.0041600000       2
     5213  5215  5242  5243    1  180.0000000000    1.0041600000       2
     5216  5215  5242  5212    1  0.0000000000      0.0000000000       1
     5216  5215  5242  5243    1  0.0000000000      0.0000000000       1
     5217  5215  5242  5212    1  180.0000000000    1.0041600000       2
     5217  5215  5242  5243    1  180.0000000000    1.0041600000       2
     1970  1994  1996  1974    1  0.0000000000      0.6508444444       3
     1970  1994  1996  1997    1  0.0000000000      0.6508444444       3
     1970  1994  1996  1998    1  0.0000000000      0.6508444444       3
     1992  1994  1996  1974    1  0.0000000000      0.6508444444       3
     1992  1994  1996  1997    1  0.0000000000      0.6508444444       3
     1992  1994  1996  1998    1  0.0000000000      0.6508444444       3
     1995  1994  1996  1974    1  0.0000000000      0.5439200000       3
     1995  1994  1996  1997    1  0.0000000000      0.5020800000       3
     1995  1994  1996  1998    1  0.0000000000      0.5020800000       3
     1966  1967  1969  1970    1  180.0000000000    15.1670000000      2
     1966  1967  1969  1999    1  180.0000000000    15.1670000000      2
     1968  1967  1969  1970    1  180.0000000000    15.1670000000      2
     1968  1967  1969  1999    1  180.0000000000    15.1670000000      2
     5217  5219  5221  5222    1  180.0000000000    1.0041600000       2
     5217  5219  5221  5230    1  180.0000000000    1.0041600000       2
     5220  5219  5221  5222    1  0.0000000000      0.0000000000       1
     5220  5219  5221  5230    1  0.0000000000      0.0000000000       1
     5235  5219  5221  5222    1  180.0000000000    1.0041600000       2
     5235  5219  5221  5230    1  180.0000000000    1.0041600000       2
     5217  5219  5235  5222    1  0.0000000000      0.6508444444       3
     5217  5219  5235  5236    1  0.0000000000      0.6508444444       3
     5217  5219  5235  5237    1  0.0000000000      0.6508444444       3
     5220  5219  5235  5222    1  0.0000000000      0.6508444444       3
     5220  5219  5235  5236    1  0.0000000000      0.6508444444       3
     5220  5219  5235  5237    1  0.0000000000      0.6508444444       3
     5221  5219  5235  5222    1  0.0000000000      0.6508444444       3
     5221  5219  5235  5236    1  0.0000000000      0.6508444444       3
     5221  5219  5235  5237    1  0.0000000000      0.6508444444       3
     4983  4985  4987  4988    1  0.0000000000      0.5439200000       3
     4983  4985  4987  4995    1  0.0000000000      2.1756800000       3
     4986  4985  4987  4988    1  0.0000000000      0.5020800000       3
     4986  4985  4987  4995    1  0.0000000000      0.5439200000       3
     4998  4985  4987  4988    1  0.0000000000      0.6508444444       3
     4998  4985  4987  4995    1  0.0000000000      0.6508444444       3
     4983  4985  4998  4982    1  180.0000000000    1.0041600000       2
     4983  4985  4998  4999    1  180.0000000000    1.0041600000       2
     4986  4985  4998  4982    1  0.0000000000      0.0000000000       1
     4986  4985  4998  4999    1  0.0000000000      0.0000000000       1
     4987  4985  4998  4982    1  180.0000000000    1.0041600000       2
     4987  4985  4998  4999    1  180.0000000000    1.0041600000       2
     4978  4979  4980  4981    1  180.0000000000    15.1670000000      2
     4978  4979  4980  4982    1  180.0000000000    15.1670000000      2
     5001  4979  4980  4981    1  180.0000000000    15.1670000000      2
     5001  4979  4980  4982    1  180.0000000000    15.1670000000      2
     4978  4979  5001  5002    1  180.0000000000    4.1840000000       2
     4978  4979  5001  5036    1  180.0000000000    4.1840000000       2
     4980  4979  5001  5002    1  180.0000000000    4.1840000000       2
     4980  4979  5001  5036    1  180.0000000000    4.1840000000       2
     4982  4998  4999  4978    1  180.0000000000    15.1670000000      2
     4982  4998  4999  5000    1  180.0000000000    15.1670000000      2
     4985  4998  4999  4978    1  180.0000000000    15.1670000000      2
     4985  4998  4999  5000    1  180.0000000000    15.1670000000      2
     1969  1970  1972  1973    1  0.0000000000      0.6508444444       3
     1969  1970  1972  1974    1  0.0000000000      0.6508444444       3
     1969  1970  1972  1999    1  0.0000000000      0.6508444444       3
     1971  1970  1972  1973    1  0.0000000000      0.6508444444       3
     1971  1970  1972  1974    1  0.0000000000      0.6508444444       3
     1971  1970  1972  1999    1  0.0000000000      0.6508444444       3
     1994  1970  1972  1973    1  0.0000000000      0.6508444444       3
     1994  1970  1972  1974    1  0.0000000000      0.6508444444       3
     1994  1970  1972  1999    1  0.0000000000      0.6508444444       3
     1969  1970  1994  1992    1  0.0000000000      0.6508444444       3
     1969  1970  1994  1995    1  0.0000000000      0.6508444444       3
     1969  1970  1994  1996    1  0.0000000000      0.6508444444       3
     1971  1970  1994  1992    1  0.0000000000      0.5439200000       3
     1971  1970  1994  1995    1  0.0000000000      0.5020800000       3
     1971  1970  1994  1996    1  0.0000000000      0.5439200000       3
     1972  1970  1994  1992    1  0.0000000000      2.1756800000       3
     1972  1970  1994  1995    1  0.0000000000      0.5439200000       3
     1972  1970  1994  1996    1  0.0000000000      2.1756800000       3
     4993  4991  4989  4990    1  0.0000000000      0.6508444444       3
     4993  4991  4989  4331    1  0.0000000000      0.6508444444       3
     4332  4991  4989  4990    1  0.0000000000      0.6508444444       3
     4324  4325  4326  4327    1  180.0000000000    15.1670000000      2
     4324  4325  4326  4331    1  180.0000000000    15.1670000000      2
     4338  4325  4326  4327    1  180.0000000000    15.1670000000      2
     4324  4325  4338  4322    1  180.0000000000    1.0041600000       2
     4324  4325  4338  4339    1  0.0000000000      0.0000000000       1
     4324  4325  4338  4340    1  180.0000000000    1.0041600000       2
     4326  4325  4338  4322    1  180.0000000000    1.0041600000       2
     4326  4325  4338  4339    1  0.0000000000      0.0000000000       1
     4326  4325  4338  4340    1  180.0000000000    1.0041600000       2
     4980  4982  4983  4984    1  0.0000000000      0.0000000000       1
     4980  4982  4983  4985    1  180.0000000000    1.0041600000       2
     4980  4982  4983  4993    1  180.0000000000    1.0041600000       2
     4998  4982  4983  4984    1  0.0000000000      0.0000000000       1
     4998  4982  4983  4985    1  180.0000000000    1.0041600000       2
     4998  4982  4983  4993    1  180.0000000000    1.0041600000       2
     4980  4982  4998  4985    1  180.0000000000    15.1670000000      2
     4980  4982  4998  4999    1  180.0000000000    15.1670000000      2
     4983  4982  4998  4985    1  180.0000000000    15.1670000000      2
     4983  4982  4998  4999    1  180.0000000000    15.1670000000      2
     1967  1969  1970  1971    1  0.0000000000      0.0000000000       1
     1967  1969  1970  1972    1  180.0000000000    1.0041600000       2
     1967  1969  1970  1994    1  180.0000000000    1.0041600000       2
     1999  1969  1970  1971    1  0.0000000000      0.0000000000       1
     1999  1969  1970  1972    1  180.0000000000    1.0041600000       2
     1999  1969  1970  1994    1  180.0000000000    1.0041600000       2
     1967  1969  1999  1972    1  180.0000000000    15.1670000000      2
     1967  1969  1999  2000    1  180.0000000000    15.1670000000      2
     1970  1969  1999  1972    1  180.0000000000    15.1670000000      2
     1970  1969  1999  2000    1  180.0000000000    15.1670000000      2
     4973  4978  4979  4980    1  180.0000000000    15.1670000000      2
     4973  4978  4979  5001    1  180.0000000000    15.1670000000      2
     4999  4978  4979  4980    1  180.0000000000    15.1670000000      2
     4999  4978  4979  5001    1  180.0000000000    15.1670000000      2
     4973  4978  4999  4998    1  180.0000000000    15.1670000000      2
     4973  4978  4999  5000    1  180.0000000000    15.1670000000      2
     4979  4978  4999  4998    1  180.0000000000    15.1670000000      2
     4979  4978  4999  5000    1  180.0000000000    15.1670000000      2
     4328  4327  4326  4331    1  0.0000000000      0.0000000000       2
     4329  4327  4326  4331    1  0.0000000000      0.0000000000       2
     4330  4327  4326  4331    1  0.0000000000      0.0000000000       2
     5215  5217  5219  5220    1  0.0000000000      0.5439200000       3
     5215  5217  5219  5221    1  0.0000000000      0.6508444444       3
     5215  5217  5219  5235    1  0.0000000000      2.1756800000       3
     5218  5217  5219  5220    1  0.0000000000      0.5020800000       3
     5218  5217  5219  5221    1  0.0000000000      0.6508444444       3
     5218  5217  5219  5235    1  0.0000000000      0.5439200000       3
     5239  5217  5219  5220    1  0.0000000000      0.5439200000       3
     5239  5217  5219  5221    1  0.0000000000      0.6508444444       3
     5239  5217  5219  5235    1  0.0000000000      2.1756800000       3
     5215  5217  5239  5237    1  0.0000000000      0.6508444444       3
     5215  5217  5239  5240    1  0.0000000000      0.6508444444       3
     5215  5217  5239  5241    1  0.0000000000      0.6508444444       3
     5218  5217  5239  5237    1  0.0000000000      0.5439200000       3
     5218  5217  5239  5240    1  0.0000000000      0.5020800000       3
     5218  5217  5239  5241    1  0.0000000000      0.5020800000       3
     5219  5217  5239  5237    1  0.0000000000      0.6508444444       3
     5219  5217  5239  5240    1  0.0000000000      0.6508444444       3
     5219  5217  5239  5241    1  0.0000000000      0.6508444444       3
     4985  4987  4989  4990    1  0.0000000000      0.5439200000       3
     4985  4987  4989  4991    1  0.0000000000      2.1756800000       3
     4988  4987  4989  4990    1  0.0000000000      0.5020800000       3
     4988  4987  4989  4991    1  0.0000000000      0.5439200000       3
     4995  4987  4989  4990    1  0.0000000000      0.5439200000       3
     4995  4987  4989  4991    1  0.0000000000      2.1756800000       3
     4985  4987  4995  4993    1  0.0000000000      0.6508444444       3
     4985  4987  4995  4996    1  0.0000000000      0.6508444444       3
     4985  4987  4995  4997    1  0.0000000000      0.6508444444       3
     4988  4987  4995  4993    1  0.0000000000      0.5439200000       3
     4988  4987  4995  4996    1  0.0000000000      0.5020800000       3
     4988  4987  4995  4997    1  0.0000000000      0.5020800000       3
     4989  4987  4995  4996    1  0.0000000000      0.6508444444       3
     4989  4987  4995  4997    1  0.0000000000      0.6508444444       3
     4989  4987  4985  4983    1  0.0000000000      2.1756800000       3
     4989  4987  4985  4986    1  0.0000000000      0.5439200000       3
     4989  4987  4985  4998    1  0.0000000000      0.6508444444       3
     4988  4987  4989  4331    1  0.0000000000      0.6508444444       3
     4995  4987  4989  4331    1  0.0000000000      0.6508444444       3
     4985  4987  4989  4331    1  0.0000000000      0.6508444444       3
     4325  4326  4327  4328    1  0.0000000000      0.0000000000       2
     4325  4326  4327  4329    1  0.0000000000      0.0000000000       2
     4325  4326  4327  4330    1  0.0000000000      0.0000000000       2
     4325  4326  4331  4332    1  180.0000000000    15.1670000000      2
     4327  4326  4331  4332    1  180.0000000000    15.1670000000      2
     4331  4326  4325  4338    1  180.0000000000    15.1670000000      2
     4327  4326  4331  4989    1  180.0000000000    15.1670000000      2
     4325  4326  4331  4989    1  180.0000000000    15.1670000000      2
     5186  5208  5209  5180    1  180.0000000000    15.1670000000      2
     5186  5208  5209  5210    1  180.0000000000    15.1670000000      2
     5243  5208  5209  5180    1  180.0000000000    15.1670000000      2
     5243  5208  5209  5210    1  180.0000000000    15.1670000000      2
     5186  5208  5243  5242    1  180.0000000000    15.1670000000      2
     5186  5208  5243  5244    1  180.0000000000    15.1670000000      2
     5209  5208  5243  5242    1  180.0000000000    15.1670000000      2
     5209  5208  5243  5244    1  180.0000000000    15.1670000000      2
     5210  5212  5213  5214    1  0.0000000000      0.0000000000       1
     5210  5212  5213  5215    1  180.0000000000    1.0041600000       2
     5210  5212  5213  5237    1  180.0000000000    1.0041600000       2
     5242  5212  5213  5214    1  0.0000000000      0.0000000000       1
     5242  5212  5213  5215    1  180.0000000000    1.0041600000       2
     5242  5212  5213  5237    1  180.0000000000    1.0041600000       2
     5210  5212  5242  5215    1  180.0000000000    15.1670000000      2
     5210  5212  5242  5243    1  180.0000000000    15.1670000000      2
     5213  5212  5242  5215    1  180.0000000000    15.1670000000      2
     5213  5212  5242  5243    1  180.0000000000    15.1670000000      2
     6358  6359  6360  6361    1  180.0000000000    15.1670000000      2
     6358  6359  6360  6362    1  180.0000000000    15.1670000000      2
     6381  6359  6360  6361    1  180.0000000000    15.1670000000      2
     6381  6359  6360  6362    1  180.0000000000    15.1670000000      2
     6358  6359  6381  6382    1  180.0000000000    4.1840000000       2
     6358  6359  6381  6416    1  180.0000000000    4.1840000000       2
     6360  6359  6381  6382    1  180.0000000000    4.1840000000       2
     6360  6359  6381  6416    1  180.0000000000    4.1840000000       2
     6359  6360  6362  6363    1  180.0000000000    15.1670000000      2
     6359  6360  6362  6378    1  180.0000000000    15.1670000000      2
     6361  6360  6362  6363    1  180.0000000000    15.1670000000      2
     6361  6360  6362  6378    1  180.0000000000    15.1670000000      2
     6360  6362  6363  6364    1  0.0000000000      0.0000000000       1
     6360  6362  6363  6365    1  180.0000000000    1.0041600000       2
     6360  6362  6363  6373    1  180.0000000000    1.0041600000       2
     6378  6362  6363  6364    1  0.0000000000      0.0000000000       1
     6378  6362  6363  6365    1  180.0000000000    1.0041600000       2
     6378  6362  6363  6373    1  180.0000000000    1.0041600000       2
     6360  6362  6378  6365    1  180.0000000000    15.1670000000      2
     6360  6362  6378  6379    1  180.0000000000    15.1670000000      2
     6363  6362  6378  6365    1  180.0000000000    15.1670000000      2
     6363  6362  6378  6379    1  180.0000000000    15.1670000000      2
     6362  6363  6365  6366    1  0.0000000000      0.6508444444       3
     6362  6363  6365  6367    1  0.0000000000      0.6508444444       3
     6362  6363  6365  6378    1  0.0000000000      0.6508444444       3
     6364  6363  6365  6366    1  0.0000000000      0.6508444444       3
     6364  6363  6365  6367    1  0.0000000000      0.6508444444       3
     6364  6363  6365  6378    1  0.0000000000      0.6508444444       3
     6373  6363  6365  6366    1  0.0000000000      0.6508444444       3
     6373  6363  6365  6367    1  0.0000000000      0.6508444444       3
     6373  6363  6365  6378    1  0.0000000000      0.6508444444       3
     6362  6363  6373  6374    1  0.0000000000      0.6508444444       3
     6362  6363  6373  6375    1  0.0000000000      0.6508444444       3
     6364  6363  6373  6374    1  0.0000000000      0.5020800000       3
     6364  6363  6373  6375    1  0.0000000000      0.5439200000       3
     6365  6363  6373  6374    1  0.0000000000      0.5439200000       3
     6365  6363  6373  6375    1  0.0000000000      2.1756800000       3
     6363  6365  6367  6368    1  0.0000000000      0.5439200000       3
     6363  6365  6367  6375    1  0.0000000000      2.1756800000       3
     6366  6365  6367  6368    1  0.0000000000      0.5020800000       3
     6366  6365  6367  6375    1  0.0000000000      0.5439200000       3
     6378  6365  6367  6368    1  0.0000000000      0.6508444444       3
     6378  6365  6367  6375    1  0.0000000000      0.6508444444       3
     6363  6365  6378  6362    1  180.0000000000    1.0041600000       2
     6363  6365  6378  6379    1  180.0000000000    1.0041600000       2
     6366  6365  6378  6362    1  0.0000000000      0.0000000000       1
     6366  6365  6378  6379    1  0.0000000000      0.0000000000       1
     6367  6365  6378  6362    1  180.0000000000    1.0041600000       2
     6367  6365  6378  6379    1  180.0000000000    1.0041600000       2
     6371  6373  6363  6362    1  0.0000000000      0.6508444444       3
     6371  6373  6363  6364    1  0.0000000000      0.5439200000       3
     6371  6373  6363  6365    1  0.0000000000      2.1756800000       3
     6363  6373  6375  6367    1  0.0000000000      0.6508444444       3
     6363  6373  6375  6376    1  0.0000000000      0.6508444444       3
     6363  6373  6375  6377    1  0.0000000000      0.6508444444       3
     6371  6373  6375  6376    1  0.0000000000      0.6508444444       3
     6371  6373  6375  6377    1  0.0000000000      0.6508444444       3
     6374  6373  6375  6367    1  0.0000000000      0.5439200000       3
     6374  6373  6375  6376    1  0.0000000000      0.5020800000       3
     6374  6373  6375  6377    1  0.0000000000      0.5020800000       3
     6363  6373  6371  6369    1  0.0000000000      2.1756800000       3
     6374  6373  6371  6369    1  0.0000000000      0.5439200000       3
     6375  6373  6371  6369    1  0.0000000000      2.1756800000       3
     6363  6373  6371  6372    1  0.0000000000      0.5439200000       3
     6374  6373  6371  6372    1  0.0000000000      0.5020800000       3
     6375  6373  6371  6372    1  0.0000000000      0.5439200000       3
     6363  6373  6371  536     1  0.0000000000      0.6508444444       3
     6374  6373  6371  536     1  0.0000000000      0.6508444444       3
     6375  6373  6371  536     1  0.0000000000      0.6508444444       3
     6367  6375  6373  6371    1  0.0000000000      0.6508444444       3
     6373  6375  6367  6369    1  0.0000000000      0.6508444444       3
     6362  6378  6379  6358    1  180.0000000000    15.1670000000      2
     6362  6378  6379  6380    1  180.0000000000    15.1670000000      2
     6365  6378  6379  6358    1  180.0000000000    15.1670000000      2
     6365  6378  6379  6380    1  180.0000000000    15.1670000000      2
     6359  6381  6382  6353    1  180.0000000000    15.1670000000      2
     6359  6381  6382  6383    1  180.0000000000    15.1670000000      2
     6416  6381  6382  6353    1  180.0000000000    15.1670000000      2
     6416  6381  6382  6383    1  180.0000000000    15.1670000000      2
     6359  6381  6416  6415    1  180.0000000000    15.1670000000      2
     6359  6381  6416  6417    1  180.0000000000    15.1670000000      2
     6382  6381  6416  6415    1  180.0000000000    15.1670000000      2
     6382  6381  6416  6417    1  180.0000000000    15.1670000000      2
     6353  6358  6359  6360    1  180.0000000000    15.1670000000      2
     6353  6358  6359  6381    1  180.0000000000    15.1670000000      2
     6379  6358  6359  6360    1  180.0000000000    15.1670000000      2
     6379  6358  6359  6381    1  180.0000000000    15.1670000000      2
     6353  6358  6379  6378    1  180.0000000000    15.1670000000      2
     6353  6358  6379  6380    1  180.0000000000    15.1670000000      2
     6359  6358  6379  6378    1  180.0000000000    15.1670000000      2
     6359  6358  6379  6380    1  180.0000000000    15.1670000000      2
     6353  6382  6383  6384    1  180.0000000000    15.1670000000      2
     6353  6382  6383  6385    1  180.0000000000    15.1670000000      2
     6381  6382  6383  6384    1  180.0000000000    15.1670000000      2
     6381  6382  6383  6385    1  180.0000000000    15.1670000000      2
     6373  6371  6369  6370    1  0.0000000000      0.6508444444       3
     6373  6371  6369  537     1  0.0000000000      0.6508444444       3
     536   6371  6369  6370    1  0.0000000000      0.6508444444       3
     6369  6367  6365  6363    1  0.0000000000      2.1756800000       3
     6369  6367  6365  6366    1  0.0000000000      0.5439200000       3
     6369  6367  6365  6378    1  0.0000000000      0.6508444444       3
     6365  6367  6369  6370    1  0.0000000000      0.5439200000       3
     6365  6367  6369  6371    1  0.0000000000      2.1756800000       3
     6368  6367  6369  6370    1  0.0000000000      0.5020800000       3
     6368  6367  6369  6371    1  0.0000000000      0.5439200000       3
     6375  6367  6369  6370    1  0.0000000000      0.5439200000       3
     6375  6367  6369  6371    1  0.0000000000      2.1756800000       3
     6365  6367  6375  6373    1  0.0000000000      0.6508444444       3
     6365  6367  6375  6376    1  0.0000000000      0.6508444444       3
     6365  6367  6375  6377    1  0.0000000000      0.6508444444       3
     6368  6367  6375  6373    1  0.0000000000      0.5439200000       3
     6368  6367  6375  6376    1  0.0000000000      0.5020800000       3
     6368  6367  6375  6377    1  0.0000000000      0.5020800000       3
     6369  6367  6375  6376    1  0.0000000000      0.6508444444       3
     6369  6367  6375  6377    1  0.0000000000      0.6508444444       3
     6365  6367  6369  537     1  0.0000000000      0.6508444444       3
     6368  6367  6369  537     1  0.0000000000      0.6508444444       3
     6375  6367  6369  537     1  0.0000000000      0.6508444444       3
     6367  6369  6371  6372    1  0.0000000000      0.6508444444       3
     6367  6369  6371  6373    1  0.0000000000      0.6508444444       3
     6370  6369  6371  6372    1  0.0000000000      0.6508444444       3
     537   6369  6371  6372    1  0.0000000000      0.6508444444       3
     537   6369  6371  536     1  0.0000000000      0.6508444444       3
     6367  6369  6371  536     1  0.0000000000      0.6508444444       3
     3152  3153  3154  3155    1  0.0000000000      0.0000000000       2
     3152  3153  3154  3156    1  0.0000000000      0.0000000000       2
     3152  3153  3154  3157    1  0.0000000000      0.0000000000       2
     3152  3153  3158  3159    1  180.0000000000    15.1670000000      2
     3154  3153  3158  3159    1  180.0000000000    15.1670000000      2
     3158  3153  3152  3165    1  180.0000000000    15.1670000000      2
     3154  3153  3158  3333    1  180.0000000000    15.1670000000      2
     3152  3153  3158  3333    1  180.0000000000    15.1670000000      2
     531   536   537   538     1  180.0000000000    15.1670000000      2
     531   536   537   6369    1  180.0000000000    15.1670000000      2
     537   536   6371  6369    1  180.0000000000    1.0041600000       2
     531   536   6371  6369    1  180.0000000000    1.0041600000       2
     537   536   6371  6372    1  0.0000000000      0.0000000000       1
     531   536   6371  6372    1  0.0000000000      0.0000000000       1
     537   536   6371  6373    1  180.0000000000    1.0041600000       2
     531   536   6371  6373    1  180.0000000000    1.0041600000       2
     3149  3165  3167  3143    1  0.0000000000      2.1756800000       3
     3149  3165  3167  3168    1  0.0000000000      0.5439200000       3
     3149  3165  3167  3169    1  0.0000000000      2.1756800000       3
     3152  3165  3167  3143    1  0.0000000000      0.6508444444       3
     3152  3165  3167  3168    1  0.0000000000      0.6508444444       3
     3152  3165  3167  3169    1  0.0000000000      0.6508444444       3
     3166  3165  3167  3143    1  0.0000000000      0.5439200000       3
     3166  3165  3167  3168    1  0.0000000000      0.5020800000       3
     3166  3165  3167  3169    1  0.0000000000      0.5439200000       3
     3143  3167  3169  3147    1  0.0000000000      0.6508444444       3
     3143  3167  3169  3170    1  0.0000000000      0.6508444444       3
     3143  3167  3169  3171    1  0.0000000000      0.6508444444       3
     3165  3167  3169  3147    1  0.0000000000      0.6508444444       3
     3165  3167  3169  3170    1  0.0000000000      0.6508444444       3
     3165  3167  3169  3171    1  0.0000000000      0.6508444444       3
     3168  3167  3169  3147    1  0.0000000000      0.5439200000       3
     3168  3167  3169  3170    1  0.0000000000      0.5020800000       3
     3168  3167  3169  3171    1  0.0000000000      0.5020800000       3
     3151  3152  3153  3154    1  180.0000000000    15.1670000000      2
     3151  3152  3153  3158    1  180.0000000000    15.1670000000      2
     3165  3152  3153  3154    1  180.0000000000    15.1670000000      2
     3151  3152  3165  3149    1  180.0000000000    1.0041600000       2
     3151  3152  3165  3166    1  0.0000000000      0.0000000000       1
     3151  3152  3165  3167    1  180.0000000000    1.0041600000       2
     3153  3152  3165  3149    1  180.0000000000    1.0041600000       2
     3153  3152  3165  3166    1  0.0000000000      0.0000000000       1
     3153  3152  3165  3167    1  180.0000000000    1.0041600000       2
     3155  3154  3153  3158    1  0.0000000000      0.0000000000       2
     3156  3154  3153  3158    1  0.0000000000      0.0000000000       2
     3157  3154  3153  3158    1  0.0000000000      0.0000000000       2
     3153  3158  3159  3160    1  180.0000000000    15.1670000000      2
     3333  3158  3159  3335    1  180.0000000000    15.1670000000      2
     3153  3158  3333  3334    1  0.0000000000      0.0000000000       1
     3159  3158  3333  3334    1  0.0000000000      0.0000000000       1
     3153  3158  3333  3335    1  180.0000000000    1.0041600000       2
     3159  3158  3333  3335    1  180.0000000000    1.0041600000       2
     3153  3158  3333  3331    1  180.0000000000    1.0041600000       2
     3159  3158  3333  3331    1  180.0000000000    1.0041600000       2
     3153  3158  3159  3335    1  180.0000000000    15.1670000000      2
     3331  3333  3335  3336    1  0.0000000000      0.6508444444       3
     3331  3333  3335  3337    1  0.0000000000      0.6508444444       3
     3334  3333  3335  3336    1  0.0000000000      0.6508444444       3
     3158  3333  3335  3336    1  0.0000000000      0.6508444444       3
     3158  3333  3335  3159    1  0.0000000000      0.6508444444       3
     3331  3333  3335  3159    1  0.0000000000      0.6508444444       3
     6349  6353  6354  6355    1  0.0000000000      0.5439200000       3
     6349  6353  6354  6356    1  0.0000000000      0.5439200000       3
     6349  6353  6354  6357    1  0.0000000000      0.5439200000       3
     6358  6353  6354  6355    1  0.0000000000      0.6508444444       3
     6358  6353  6354  6356    1  0.0000000000      0.6508444444       3
     6358  6353  6354  6357    1  0.0000000000      0.6508444444       3
     6382  6353  6354  6355    1  0.0000000000      0.6508444444       3
     6382  6353  6354  6356    1  0.0000000000      0.6508444444       3
     6382  6353  6354  6357    1  0.0000000000      0.6508444444       3
     6349  6353  6358  6359    1  0.0000000000      0.0000000000       2
     6349  6353  6358  6379    1  180.0000000000    1.0041600000       2
     6354  6353  6358  6359    1  0.0000000000      0.0000000000       2
     6354  6353  6358  6379    1  180.0000000000    1.0041600000       2
     6382  6353  6358  6359    1  0.0000000000      0.0000000000       2
     6382  6353  6358  6379    1  180.0000000000    0.0000000000       2
     6349  6353  6382  6381    1  0.0000000000      0.0000000000       2
     6349  6353  6382  6383    1  180.0000000000    1.0041600000       2
     6354  6353  6382  6381    1  0.0000000000      0.0000000000       2
     6354  6353  6382  6383    1  180.0000000000    1.0041600000       2
     6358  6353  6382  6381    1  0.0000000000      0.0000000000       2
     6358  6353  6382  6383    1  180.0000000000    0.0000000000       2
     383   385   387   388     1  0.0000000000      0.5439200000       3
     383   385   387   389     1  0.0000000000      2.1756800000       3
     383   385   387   409     1  0.0000000000      2.1756800000       3
     386   385   387   388     1  0.0000000000      0.5020800000       3
     386   385   387   389     1  0.0000000000      0.5439200000       3
     386   385   387   409     1  0.0000000000      0.5439200000       3
     412   385   387   388     1  0.0000000000      0.6508444444       3
     412   385   387   389     1  0.0000000000      0.6508444444       3
     412   385   387   409     1  0.0000000000      0.6508444444       3
     383   385   412   382     1  180.0000000000    1.0041600000       2
     383   385   412   413     1  180.0000000000    1.0041600000       2
     386   385   412   382     1  0.0000000000      0.0000000000       1
     386   385   412   413     1  0.0000000000      0.0000000000       1
     387   385   412   382     1  180.0000000000    1.0041600000       2
     387   385   412   413     1  180.0000000000    1.0041600000       2
     1779  1780  1771  1769    1  180.0000000000    15.1670000000      2
     1781  1780  1779  1778    1  180.0000000000    15.1670000000      2
     1771  1780  1781  1782    1  0.0000000000      0.0000000000       2
     1771  1780  1781  1783    1  0.0000000000      0.0000000000       2
     1771  1780  1781  1784    1  0.0000000000      0.0000000000       2
     1771  1780  1779  2643    1  180.0000000000    15.1670000000      2
     1781  1780  1779  2643    1  180.0000000000    15.1670000000      2
     382   412   413   378     1  180.0000000000    15.1670000000      2
     382   412   413   414     1  180.0000000000    15.1670000000      2
     385   412   413   378     1  180.0000000000    15.1670000000      2
     385   412   413   414     1  180.0000000000    15.1670000000      2
     536   537   538   529     1  180.0000000000    15.1670000000      2
     6369  537   536   6371    1  180.0000000000    15.1670000000      2
     536   537   6369  6370    1  0.0000000000      0.0000000000       1
     538   537   6369  6370    1  0.0000000000      0.0000000000       1
     536   537   6369  6371    1  180.0000000000    1.0041600000       2
     538   537   6369  6371    1  180.0000000000    1.0041600000       2
     536   537   6369  6367    1  180.0000000000    1.0041600000       2
     538   537   6369  6367    1  180.0000000000    1.0041600000       2
     538   537   536   6371    1  180.0000000000    15.1670000000      2
     1782  1781  1780  1779    1  0.0000000000      0.0000000000       2
     1783  1781  1780  1779    1  0.0000000000      0.0000000000       2
     1784  1781  1780  1779    1  0.0000000000      0.0000000000       2
     356   378   379   350     1  180.0000000000    15.1670000000      2
     356   378   379   380     1  180.0000000000    15.1670000000      2
     413   378   379   350     1  180.0000000000    15.1670000000      2
     413   378   379   380     1  180.0000000000    15.1670000000      2
     356   378   413   412     1  180.0000000000    15.1670000000      2
     356   378   413   414     1  180.0000000000    15.1670000000      2
     379   378   413   412     1  180.0000000000    15.1670000000      2
     379   378   413   414     1  180.0000000000    15.1670000000      2
     355   356   357   358     1  180.0000000000    15.1670000000      2
     355   356   357   359     1  180.0000000000    15.1670000000      2
     378   356   357   358     1  180.0000000000    15.1670000000      2
     378   356   357   359     1  180.0000000000    15.1670000000      2
     355   356   378   379     1  180.0000000000    4.1840000000       2
     355   356   378   413     1  180.0000000000    4.1840000000       2
     357   356   378   379     1  180.0000000000    4.1840000000       2
     357   356   378   413     1  180.0000000000    4.1840000000       2
     6382  6383  6385  6386    1  180.0000000000    15.1670000000      2
     6382  6383  6385  6415    1  180.0000000000    15.1670000000      2
     6384  6383  6385  6386    1  180.0000000000    15.1670000000      2
     6384  6383  6385  6415    1  180.0000000000    15.1670000000      2
     471   470   469   468     1  0.0000000000      0.0000000000       2
     472   470   469   468     1  0.0000000000      0.0000000000       2
     473   470   469   468     1  0.0000000000      0.0000000000       2
     3147  3149  3151  3152    1  180.0000000000    1.0041600000       2
     3147  3149  3151  3160    1  180.0000000000    1.0041600000       2
     3150  3149  3151  3152    1  0.0000000000      0.0000000000       1
     3150  3149  3151  3160    1  0.0000000000      0.0000000000       1
     3165  3149  3151  3152    1  180.0000000000    1.0041600000       2
     3165  3149  3151  3160    1  180.0000000000    1.0041600000       2
     3147  3149  3165  3152    1  0.0000000000      0.6508444444       3
     3147  3149  3165  3166    1  0.0000000000      0.6508444444       3
     3147  3149  3165  3167    1  0.0000000000      0.6508444444       3
     3150  3149  3165  3152    1  0.0000000000      0.6508444444       3
     3150  3149  3165  3166    1  0.0000000000      0.6508444444       3
     3150  3149  3165  3167    1  0.0000000000      0.6508444444       3
     3151  3149  3165  3152    1  0.0000000000      0.6508444444       3
     3151  3149  3165  3166    1  0.0000000000      0.6508444444       3
     3151  3149  3165  3167    1  0.0000000000      0.6508444444       3
     3142  3143  3145  3146    1  0.0000000000      0.6508444444       3
     3142  3143  3145  3147    1  0.0000000000      0.6508444444       3
     3142  3143  3145  3172    1  0.0000000000      0.6508444444       3
     3144  3143  3145  3146    1  0.0000000000      0.6508444444       3
     3144  3143  3145  3147    1  0.0000000000      0.6508444444       3
     3144  3143  3145  3172    1  0.0000000000      0.6508444444       3
     3167  3143  3145  3146    1  0.0000000000      0.6508444444       3
     3167  3143  3145  3147    1  0.0000000000      0.6508444444       3
     3167  3143  3145  3172    1  0.0000000000      0.6508444444       3
     3142  3143  3167  3165    1  0.0000000000      0.6508444444       3
     3142  3143  3167  3168    1  0.0000000000      0.6508444444       3
     3142  3143  3167  3169    1  0.0000000000      0.6508444444       3
     3144  3143  3167  3165    1  0.0000000000      0.5439200000       3
     3144  3143  3167  3168    1  0.0000000000      0.5020800000       3
     3144  3143  3167  3169    1  0.0000000000      0.5439200000       3
     3145  3143  3167  3165    1  0.0000000000      2.1756800000       3
     3145  3143  3167  3168    1  0.0000000000      0.5439200000       3
     3145  3143  3167  3169    1  0.0000000000      2.1756800000       3
     3120  3130  3128  3126    1  0.0000000000      2.1756800000       3
     3131  3130  3128  3126    1  0.0000000000      0.5439200000       3
     3132  3130  3128  3126    1  0.0000000000      2.1756800000       3
     3120  3130  3128  3129    1  0.0000000000      0.5439200000       3
     3131  3130  3128  3129    1  0.0000000000      0.5020800000       3
     3132  3130  3128  3129    1  0.0000000000      0.5439200000       3
     3128  3130  3120  3119    1  0.0000000000      0.6508444444       3
     3128  3130  3120  3121    1  0.0000000000      0.5439200000       3
     3128  3130  3120  3122    1  0.0000000000      2.1756800000       3
     3120  3130  3132  3124    1  0.0000000000      0.6508444444       3
     3120  3130  3132  3133    1  0.0000000000      0.6508444444       3
     3120  3130  3132  3134    1  0.0000000000      0.6508444444       3
     3128  3130  3132  3133    1  0.0000000000      0.6508444444       3
     3128  3130  3132  3134    1  0.0000000000      0.6508444444       3
     3131  3130  3132  3124    1  0.0000000000      0.5439200000       3
     3131  3130  3132  3133    1  0.0000000000      0.5020800000       3
     3131  3130  3132  3134    1  0.0000000000      0.5020800000       3
     3120  3130  3128  1365    1  0.0000000000      0.6508444444       3
     3131  3130  3128  1365    1  0.0000000000      0.6508444444       3
     3132  3130  3128  1365    1  0.0000000000      0.6508444444       3
     485   484   488   489     1  0.0000000000      0.5439200000       3
     485   484   488   493     1  0.0000000000      0.6508444444       3
     485   484   488   517     1  0.0000000000      0.6508444444       3
     486   484   488   489     1  0.0000000000      0.5439200000       3
     486   484   488   493     1  0.0000000000      0.6508444444       3
     486   484   488   517     1  0.0000000000      0.6508444444       3
     487   484   488   489     1  0.0000000000      0.5439200000       3
     487   484   488   493     1  0.0000000000      0.6508444444       3
     487   484   488   517     1  0.0000000000      0.6508444444       3
     2572  2574  2576  2577    1  0.0000000000      0.6508444444       3
     2572  2574  2576  2578    1  0.0000000000      0.6508444444       3
     2575  2574  2576  2577    1  0.0000000000      0.6508444444       3
     468   2574  2576  2577    1  0.0000000000      0.6508444444       3
     468   2574  2576  467     1  0.0000000000      0.6508444444       3
     2572  2574  2576  467     1  0.0000000000      0.6508444444       3
     536   531   530   543     1  180.0000000000    15.1670000000      2
     530   531   532   533     1  0.0000000000      0.0000000000       2
     530   531   532   534     1  0.0000000000      0.0000000000       2
     530   531   532   535     1  0.0000000000      0.0000000000       2
     530   531   536   537     1  180.0000000000    15.1670000000      2
     532   531   536   537     1  180.0000000000    15.1670000000      2
     530   531   536   6371    1  180.0000000000    15.1670000000      2
     532   531   536   6371    1  180.0000000000    15.1670000000      2
     385   387   389   390     1  0.0000000000      0.5439200000       3
     385   387   389   391     1  0.0000000000      0.6508444444       3
     385   387   389   405     1  0.0000000000      2.1756800000       3
     388   387   389   390     1  0.0000000000      0.5020800000       3
     388   387   389   391     1  0.0000000000      0.6508444444       3
     388   387   389   405     1  0.0000000000      0.5439200000       3
     409   387   389   390     1  0.0000000000      0.5439200000       3
     409   387   389   391     1  0.0000000000      0.6508444444       3
     409   387   389   405     1  0.0000000000      2.1756800000       3
     385   387   409   407     1  0.0000000000      0.6508444444       3
     385   387   409   410     1  0.0000000000      0.6508444444       3
     385   387   409   411     1  0.0000000000      0.6508444444       3
     388   387   409   407     1  0.0000000000      0.5439200000       3
     388   387   409   410     1  0.0000000000      0.5020800000       3
     388   387   409   411     1  0.0000000000      0.5020800000       3
     389   387   409   407     1  0.0000000000      0.6508444444       3
     389   387   409   410     1  0.0000000000      0.6508444444       3
     389   387   409   411     1  0.0000000000      0.6508444444       3
     5186  5187  5189  5190    1  180.0000000000    15.1670000000      2
     5186  5187  5189  5205    1  180.0000000000    15.1670000000      2
     5188  5187  5189  5190    1  180.0000000000    15.1670000000      2
     5188  5187  5189  5205    1  180.0000000000    15.1670000000      2
     3149  3151  3152  3153    1  180.0000000000    15.1670000000      2
     3149  3151  3152  3165    1  180.0000000000    15.1670000000      2
     3160  3151  3152  3153    1  180.0000000000    15.1670000000      2
     3160  3151  3152  3165    1  180.0000000000    15.1670000000      2
     3149  3151  3160  3161    1  180.0000000000    15.1670000000      2
     3152  3151  3160  3159    1  180.0000000000    15.1670000000      2
     3152  3151  3160  3161    1  180.0000000000    15.1670000000      2
     3145  3147  3149  3150    1  0.0000000000      0.5439200000       3
     3145  3147  3149  3151    1  0.0000000000      0.6508444444       3
     3145  3147  3149  3165    1  0.0000000000      2.1756800000       3
     3148  3147  3149  3150    1  0.0000000000      0.5020800000       3
     3148  3147  3149  3151    1  0.0000000000      0.6508444444       3
     3148  3147  3149  3165    1  0.0000000000      0.5439200000       3
     3169  3147  3149  3150    1  0.0000000000      0.5439200000       3
     3169  3147  3149  3151    1  0.0000000000      0.6508444444       3
     3169  3147  3149  3165    1  0.0000000000      2.1756800000       3
     3145  3147  3169  3167    1  0.0000000000      0.6508444444       3
     3145  3147  3169  3170    1  0.0000000000      0.6508444444       3
     3145  3147  3169  3171    1  0.0000000000      0.6508444444       3
     3148  3147  3169  3167    1  0.0000000000      0.5439200000       3
     3148  3147  3169  3170    1  0.0000000000      0.5020800000       3
     3148  3147  3169  3171    1  0.0000000000      0.5020800000       3
     3149  3147  3169  3167    1  0.0000000000      0.6508444444       3
     3149  3147  3169  3170    1  0.0000000000      0.6508444444       3
     3149  3147  3169  3171    1  0.0000000000      0.6508444444       3
     4973  5002  5003  5004    1  180.0000000000    15.1670000000      2
     4973  5002  5003  5005    1  180.0000000000    15.1670000000      2
     5001  5002  5003  5004    1  180.0000000000    15.1670000000      2
     5001  5002  5003  5005    1  180.0000000000    15.1670000000      2
     3116  3117  3119  3120    1  180.0000000000    15.1670000000      2
     3116  3117  3119  3135    1  180.0000000000    15.1670000000      2
     3118  3117  3119  3120    1  180.0000000000    15.1670000000      2
     3118  3117  3119  3135    1  180.0000000000    15.1670000000      2
     1313  1312  1316  1317    1  0.0000000000      0.5439200000       3
     1313  1312  1316  1321    1  0.0000000000      0.6508444444       3
     1313  1312  1316  1345    1  0.0000000000      0.6508444444       3
     1314  1312  1316  1317    1  0.0000000000      0.5439200000       3
     1314  1312  1316  1321    1  0.0000000000      0.6508444444       3
     1314  1312  1316  1345    1  0.0000000000      0.6508444444       3
     1315  1312  1316  1317    1  0.0000000000      0.5439200000       3
     1315  1312  1316  1321    1  0.0000000000      0.6508444444       3
     1315  1312  1316  1345    1  0.0000000000      0.6508444444       3
     3119  3120  3122  3123    1  0.0000000000      0.6508444444       3
     3119  3120  3122  3124    1  0.0000000000      0.6508444444       3
     3119  3120  3122  3135    1  0.0000000000      0.6508444444       3
     3121  3120  3122  3123    1  0.0000000000      0.6508444444       3
     3121  3120  3122  3124    1  0.0000000000      0.6508444444       3
     3121  3120  3122  3135    1  0.0000000000      0.6508444444       3
     3130  3120  3122  3123    1  0.0000000000      0.6508444444       3
     3130  3120  3122  3124    1  0.0000000000      0.6508444444       3
     3130  3120  3122  3135    1  0.0000000000      0.6508444444       3
     3119  3120  3130  3131    1  0.0000000000      0.6508444444       3
     3119  3120  3130  3132    1  0.0000000000      0.6508444444       3
     3121  3120  3130  3131    1  0.0000000000      0.5020800000       3
     3121  3120  3130  3132    1  0.0000000000      0.5439200000       3
     3122  3120  3130  3131    1  0.0000000000      0.5439200000       3
     3122  3120  3130  3132    1  0.0000000000      2.1756800000       3
     4970  4969  4973  4974    1  0.0000000000      0.5439200000       3
     4970  4969  4973  4978    1  0.0000000000      0.6508444444       3
     4970  4969  4973  5002    1  0.0000000000      0.6508444444       3
     4971  4969  4973  4974    1  0.0000000000      0.5439200000       3
     4971  4969  4973  4978    1  0.0000000000      0.6508444444       3
     4971  4969  4973  5002    1  0.0000000000      0.6508444444       3
     4972  4969  4973  4974    1  0.0000000000      0.5439200000       3
     4972  4969  4973  4978    1  0.0000000000      0.6508444444       3
     4972  4969  4973  5002    1  0.0000000000      0.6508444444       3
     3337  3335  3333  3334    1  0.0000000000      0.6508444444       3
     3337  3335  3333  3158    1  0.0000000000      0.6508444444       3
     3159  3335  3333  3334    1  0.0000000000      0.6508444444       3
     4969  4973  4974  4975    1  0.0000000000      0.5439200000       3
     4969  4973  4974  4976    1  0.0000000000      0.5439200000       3
     4969  4973  4974  4977    1  0.0000000000      0.5439200000       3
     4978  4973  4974  4975    1  0.0000000000      0.6508444444       3
     4978  4973  4974  4976    1  0.0000000000      0.6508444444       3
     4978  4973  4974  4977    1  0.0000000000      0.6508444444       3
     5002  4973  4974  4975    1  0.0000000000      0.6508444444       3
     5002  4973  4974  4976    1  0.0000000000      0.6508444444       3
     5002  4973  4974  4977    1  0.0000000000      0.6508444444       3
     4969  4973  4978  4979    1  0.0000000000      0.0000000000       2
     4969  4973  4978  4999    1  180.0000000000    1.0041600000       2
     4974  4973  4978  4979    1  0.0000000000      0.0000000000       2
     4974  4973  4978  4999    1  180.0000000000    1.0041600000       2
     5002  4973  4978  4979    1  0.0000000000      0.0000000000       2
     5002  4973  4978  4999    1  180.0000000000    0.0000000000       2
     4969  4973  5002  5001    1  0.0000000000      0.0000000000       2
     4969  4973  5002  5003    1  180.0000000000    1.0041600000       2
     4974  4973  5002  5001    1  0.0000000000      0.0000000000       2
     4974  4973  5002  5003    1  180.0000000000    1.0041600000       2
     4978  4973  5002  5001    1  0.0000000000      0.0000000000       2
     4978  4973  5002  5003    1  180.0000000000    0.0000000000       2
     387   389   391   392     1  180.0000000000    1.0041600000       2
     387   389   391   400     1  180.0000000000    1.0041600000       2
     390   389   391   392     1  0.0000000000      0.0000000000       1
     390   389   391   400     1  0.0000000000      0.0000000000       1
     405   389   391   392     1  180.0000000000    1.0041600000       2
     405   389   391   400     1  180.0000000000    1.0041600000       2
     387   389   405   392     1  0.0000000000      0.6508444444       3
     387   389   405   406     1  0.0000000000      0.6508444444       3
     387   389   405   407     1  0.0000000000      0.6508444444       3
     390   389   405   392     1  0.0000000000      0.6508444444       3
     390   389   405   406     1  0.0000000000      0.6508444444       3
     390   389   405   407     1  0.0000000000      0.6508444444       3
     391   389   405   392     1  0.0000000000      0.6508444444       3
     391   389   405   406     1  0.0000000000      0.6508444444       3
     391   389   405   407     1  0.0000000000      0.6508444444       3
     3115  3116  3117  3118    1  180.0000000000    15.1670000000      2
     3115  3116  3117  3119    1  180.0000000000    15.1670000000      2
     3138  3116  3117  3118    1  180.0000000000    15.1670000000      2
     3138  3116  3117  3119    1  180.0000000000    15.1670000000      2
     3115  3116  3138  3139    1  180.0000000000    4.1840000000       2
     3115  3116  3138  3173    1  180.0000000000    4.1840000000       2
     3117  3116  3138  3139    1  180.0000000000    4.1840000000       2
     3117  3116  3138  3173    1  180.0000000000    4.1840000000       2
     3143  3145  3147  3148    1  0.0000000000      0.5439200000       3
     3143  3145  3147  3149    1  0.0000000000      2.1756800000       3
     3143  3145  3147  3169    1  0.0000000000      2.1756800000       3
     3146  3145  3147  3148    1  0.0000000000      0.5020800000       3
     3146  3145  3147  3149    1  0.0000000000      0.5439200000       3
     3146  3145  3147  3169    1  0.0000000000      0.5439200000       3
     3172  3145  3147  3148    1  0.0000000000      0.6508444444       3
     3172  3145  3147  3149    1  0.0000000000      0.6508444444       3
     3172  3145  3147  3169    1  0.0000000000      0.6508444444       3
     3143  3145  3172  3142    1  180.0000000000    1.0041600000       2
     3143  3145  3172  3173    1  180.0000000000    1.0041600000       2
     3146  3145  3172  3142    1  0.0000000000      0.0000000000       1
     3146  3145  3172  3173    1  0.0000000000      0.0000000000       1
     3147  3145  3172  3142    1  180.0000000000    1.0041600000       2
     3147  3145  3172  3173    1  180.0000000000    1.0041600000       2
     3162  3161  3160  3159    1  0.0000000000      0.0000000000       2
     3163  3161  3160  3159    1  0.0000000000      0.0000000000       2
     3164  3161  3160  3159    1  0.0000000000      0.0000000000       2
     533   532   531   536     1  0.0000000000      0.0000000000       2
     534   532   531   536     1  0.0000000000      0.0000000000       2
     535   532   531   536     1  0.0000000000      0.0000000000       2
     3116  3138  3139  3110    1  180.0000000000    15.1670000000      2
     3116  3138  3139  3140    1  180.0000000000    15.1670000000      2
     3173  3138  3139  3110    1  180.0000000000    15.1670000000      2
     3173  3138  3139  3140    1  180.0000000000    15.1670000000      2
     3116  3138  3173  3172    1  180.0000000000    15.1670000000      2
     3116  3138  3173  3174    1  180.0000000000    15.1670000000      2
     3139  3138  3173  3172    1  180.0000000000    15.1670000000      2
     3139  3138  3173  3174    1  180.0000000000    15.1670000000      2
     3110  3139  3140  3141    1  180.0000000000    15.1670000000      2
     3110  3139  3140  3142    1  180.0000000000    15.1670000000      2
     3138  3139  3140  3141    1  180.0000000000    15.1670000000      2
     3138  3139  3140  3142    1  180.0000000000    15.1670000000      2
     3158  3159  3160  3151    1  180.0000000000    15.1670000000      2
     3160  3159  3158  3333    1  180.0000000000    15.1670000000      2
     3158  3159  3335  3333    1  180.0000000000    1.0041600000       2
     3160  3159  3335  3333    1  180.0000000000    1.0041600000       2
     3158  3159  3335  3336    1  0.0000000000      0.0000000000       1
     3160  3159  3335  3336    1  0.0000000000      0.0000000000       1
     3158  3159  3335  3337    1  180.0000000000    1.0041600000       2
     3160  3159  3335  3337    1  180.0000000000    1.0041600000       2
     3142  3172  3173  3138    1  180.0000000000    15.1670000000      2
     3142  3172  3173  3174    1  180.0000000000    15.1670000000      2
     3145  3172  3173  3138    1  180.0000000000    15.1670000000      2
     3145  3172  3173  3174    1  180.0000000000    15.1670000000      2
     3139  3140  3142  3143    1  180.0000000000    15.1670000000      2
     3139  3140  3142  3172    1  180.0000000000    15.1670000000      2
     3141  3140  3142  3143    1  180.0000000000    15.1670000000      2
     3141  3140  3142  3172    1  180.0000000000    15.1670000000      2
     3159  3160  3151  3149    1  180.0000000000    15.1670000000      2
     3151  3160  3161  3162    1  0.0000000000      0.0000000000       2
     3151  3160  3161  3163    1  0.0000000000      0.0000000000       2
     3151  3160  3161  3164    1  0.0000000000      0.0000000000       2
     3161  3160  3159  3158    1  180.0000000000    15.1670000000      2
     3151  3160  3159  3335    1  180.0000000000    15.1670000000      2
     3161  3160  3159  3335    1  180.0000000000    15.1670000000      2
     3140  3142  3143  3144    1  0.0000000000      0.0000000000       1
     3140  3142  3143  3145    1  180.0000000000    1.0041600000       2
     3140  3142  3143  3167    1  180.0000000000    1.0041600000       2
     3172  3142  3143  3144    1  0.0000000000      0.0000000000       1
     3172  3142  3143  3145    1  180.0000000000    1.0041600000       2
     3172  3142  3143  3167    1  180.0000000000    1.0041600000       2
     3140  3142  3172  3145    1  180.0000000000    15.1670000000      2
     3140  3142  3172  3173    1  180.0000000000    15.1670000000      2
     3143  3142  3172  3145    1  180.0000000000    15.1670000000      2
     3143  3142  3172  3173    1  180.0000000000    15.1670000000      2
     3117  3119  3120  3121    1  0.0000000000      0.0000000000       1
     3117  3119  3120  3122    1  180.0000000000    1.0041600000       2
     3117  3119  3120  3130    1  180.0000000000    1.0041600000       2
     3135  3119  3120  3121    1  0.0000000000      0.0000000000       1
     3135  3119  3120  3122    1  180.0000000000    1.0041600000       2
     3135  3119  3120  3130    1  180.0000000000    1.0041600000       2
     3117  3119  3135  3122    1  180.0000000000    15.1670000000      2
     3117  3119  3135  3136    1  180.0000000000    15.1670000000      2
     3120  3119  3135  3122    1  180.0000000000    15.1670000000      2
     3120  3119  3135  3136    1  180.0000000000    15.1670000000      2
     494   516   517   488     1  180.0000000000    15.1670000000      2
     494   516   517   518     1  180.0000000000    15.1670000000      2
     551   516   517   488     1  180.0000000000    15.1670000000      2
     551   516   517   518     1  180.0000000000    15.1670000000      2
     494   516   551   550     1  180.0000000000    15.1670000000      2
     494   516   551   552     1  180.0000000000    15.1670000000      2
     517   516   551   550     1  180.0000000000    15.1670000000      2
     517   516   551   552     1  180.0000000000    15.1670000000      2
     537   538   529   527     1  180.0000000000    15.1670000000      2
     539   538   537   536     1  180.0000000000    15.1670000000      2
     529   538   539   540     1  0.0000000000      0.0000000000       2
     529   538   539   541     1  0.0000000000      0.0000000000       2
     529   538   539   542     1  0.0000000000      0.0000000000       2
     529   538   537   6369    1  180.0000000000    15.1670000000      2
     539   538   537   6369    1  180.0000000000    15.1670000000      2
     540   539   538   537     1  0.0000000000      0.0000000000       2
     541   539   538   537     1  0.0000000000      0.0000000000       2
     542   539   538   537     1  0.0000000000      0.0000000000       2
     488   517   518   519     1  180.0000000000    15.1670000000      2
     488   517   518   520     1  180.0000000000    15.1670000000      2
     516   517   518   519     1  180.0000000000    15.1670000000      2
     516   517   518   520     1  180.0000000000    15.1670000000      2
     5539  5541  5543  5544    1  0.0000000000      0.6508444444       3
     5539  5541  5543  5545    1  0.0000000000      0.6508444444       3
     5542  5541  5543  5544    1  0.0000000000      0.6508444444       3
     4746  5541  5543  5544    1  0.0000000000      0.6508444444       3
     4746  5541  5543  4745    1  0.0000000000      0.6508444444       3
     5539  5541  5543  4745    1  0.0000000000      0.6508444444       3
     493   494   495   496     1  180.0000000000    15.1670000000      2
     493   494   495   497     1  180.0000000000    15.1670000000      2
     516   494   495   496     1  180.0000000000    15.1670000000      2
     516   494   495   497     1  180.0000000000    15.1670000000      2
     493   494   516   517     1  180.0000000000    4.1840000000       2
     493   494   516   551     1  180.0000000000    4.1840000000       2
     495   494   516   517     1  180.0000000000    4.1840000000       2
     495   494   516   551     1  180.0000000000    4.1840000000       2
     527   529   530   531     1  180.0000000000    15.1670000000      2
     527   529   530   543     1  180.0000000000    15.1670000000      2
     538   529   530   531     1  180.0000000000    15.1670000000      2
     538   529   530   543     1  180.0000000000    15.1670000000      2
     527   529   538   539     1  180.0000000000    15.1670000000      2
     530   529   538   537     1  180.0000000000    15.1670000000      2
     530   529   538   539     1  180.0000000000    15.1670000000      2
     5545  5543  5541  5542    1  0.0000000000      0.6508444444       3
     5545  5543  5541  4746    1  0.0000000000      0.6508444444       3
     4745  5543  5541  5542    1  0.0000000000      0.6508444444       3
     494   495   497   498     1  180.0000000000    15.1670000000      2
     494   495   497   513     1  180.0000000000    15.1670000000      2
     496   495   497   498     1  180.0000000000    15.1670000000      2
     496   495   497   513     1  180.0000000000    15.1670000000      2
     357   359   360   361     1  0.0000000000      0.0000000000       1
     357   359   360   362     1  180.0000000000    1.0041600000       2
     357   359   360   370     1  180.0000000000    1.0041600000       2
     375   359   360   361     1  0.0000000000      0.0000000000       1
     375   359   360   362     1  180.0000000000    1.0041600000       2
     375   359   360   370     1  180.0000000000    1.0041600000       2
     357   359   375   362     1  180.0000000000    15.1670000000      2
     357   359   375   376     1  180.0000000000    15.1670000000      2
     360   359   375   362     1  180.0000000000    15.1670000000      2
     360   359   375   376     1  180.0000000000    15.1670000000      2
     520   550   551   516     1  180.0000000000    15.1670000000      2
     520   550   551   552     1  180.0000000000    15.1670000000      2
     523   550   551   516     1  180.0000000000    15.1670000000      2
     523   550   551   552     1  180.0000000000    15.1670000000      2
     484   488   489   490     1  0.0000000000      0.5439200000       3
     484   488   489   491     1  0.0000000000      0.5439200000       3
     484   488   489   492     1  0.0000000000      0.5439200000       3
     493   488   489   490     1  0.0000000000      0.6508444444       3
     493   488   489   491     1  0.0000000000      0.6508444444       3
     493   488   489   492     1  0.0000000000      0.6508444444       3
     517   488   489   490     1  0.0000000000      0.6508444444       3
     517   488   489   491     1  0.0000000000      0.6508444444       3
     517   488   489   492     1  0.0000000000      0.6508444444       3
     484   488   493   494     1  0.0000000000      0.0000000000       2
     484   488   493   514     1  180.0000000000    1.0041600000       2
     489   488   493   494     1  0.0000000000      0.0000000000       2
     489   488   493   514     1  180.0000000000    1.0041600000       2
     517   488   493   494     1  0.0000000000      0.0000000000       2
     517   488   493   514     1  180.0000000000    0.0000000000       2
     484   488   517   516     1  0.0000000000      0.0000000000       2
     484   488   517   518     1  180.0000000000    1.0041600000       2
     489   488   517   516     1  0.0000000000      0.0000000000       2
     489   488   517   518     1  180.0000000000    1.0041600000       2
     493   488   517   516     1  0.0000000000      0.0000000000       2
     493   488   517   518     1  180.0000000000    0.0000000000       2
     5543  5545  5535  5534    1  0.0000000000      0.6508444444       3
     5543  5545  5535  5536    1  0.0000000000      0.5439200000       3
     5543  5545  5535  5537    1  0.0000000000      2.1756800000       3
     5535  5545  5543  5541    1  0.0000000000      2.1756800000       3
     5546  5545  5543  5541    1  0.0000000000      0.5439200000       3
     5547  5545  5543  5541    1  0.0000000000      2.1756800000       3
     5535  5545  5543  5544    1  0.0000000000      0.5439200000       3
     5546  5545  5543  5544    1  0.0000000000      0.5020800000       3
     5547  5545  5543  5544    1  0.0000000000      0.5439200000       3
     5535  5545  5547  5539    1  0.0000000000      0.6508444444       3
     5535  5545  5547  5548    1  0.0000000000      0.6508444444       3
     5535  5545  5547  5549    1  0.0000000000      0.6508444444       3
     5543  5545  5547  5548    1  0.0000000000      0.6508444444       3
     5543  5545  5547  5549    1  0.0000000000      0.6508444444       3
     5546  5545  5547  5539    1  0.0000000000      0.5439200000       3
     5546  5545  5547  5548    1  0.0000000000      0.5020800000       3
     5546  5545  5547  5549    1  0.0000000000      0.5020800000       3
     5535  5545  5543  4745    1  0.0000000000      0.6508444444       3
     5546  5545  5543  4745    1  0.0000000000      0.6508444444       3
     5547  5545  5543  4745    1  0.0000000000      0.6508444444       3
     3878  3879  3881  3882    1  0.0000000000      0.6508444444       3
     3878  3879  3881  3883    1  0.0000000000      0.6508444444       3
     3878  3879  3881  3894    1  0.0000000000      0.6508444444       3
     3880  3879  3881  3882    1  0.0000000000      0.6508444444       3
     3880  3879  3881  3883    1  0.0000000000      0.6508444444       3
     3880  3879  3881  3894    1  0.0000000000      0.6508444444       3
     3889  3879  3881  3882    1  0.0000000000      0.6508444444       3
     3889  3879  3881  3883    1  0.0000000000      0.6508444444       3
     3889  3879  3881  3894    1  0.0000000000      0.6508444444       3
     3878  3879  3889  3890    1  0.0000000000      0.6508444444       3
     3878  3879  3889  3891    1  0.0000000000      0.6508444444       3
     3880  3879  3889  3890    1  0.0000000000      0.5020800000       3
     3880  3879  3889  3891    1  0.0000000000      0.5439200000       3
     3881  3879  3889  3890    1  0.0000000000      0.5439200000       3
     3881  3879  3889  3891    1  0.0000000000      2.1756800000       3
     5534  5535  5537  5538    1  0.0000000000      0.6508444444       3
     5534  5535  5537  5539    1  0.0000000000      0.6508444444       3
     5534  5535  5537  5550    1  0.0000000000      0.6508444444       3
     5536  5535  5537  5538    1  0.0000000000      0.6508444444       3
     5536  5535  5537  5539    1  0.0000000000      0.6508444444       3
     5536  5535  5537  5550    1  0.0000000000      0.6508444444       3
     5545  5535  5537  5538    1  0.0000000000      0.6508444444       3
     5545  5535  5537  5539    1  0.0000000000      0.6508444444       3
     5545  5535  5537  5550    1  0.0000000000      0.6508444444       3
     5534  5535  5545  5546    1  0.0000000000      0.6508444444       3
     5534  5535  5545  5547    1  0.0000000000      0.6508444444       3
     5536  5535  5545  5546    1  0.0000000000      0.5020800000       3
     5536  5535  5545  5547    1  0.0000000000      0.5439200000       3
     5537  5535  5545  5546    1  0.0000000000      0.5439200000       3
     5537  5535  5545  5547    1  0.0000000000      2.1756800000       3
     1230  1229  1228  1227    1  0.0000000000      0.0000000000       2
     1231  1229  1228  1227    1  0.0000000000      0.0000000000       2
     1232  1229  1228  1227    1  0.0000000000      0.0000000000       2
     3883  3885  3887  3888    1  0.0000000000      0.6508444444       3
     3883  3885  3887  3889    1  0.0000000000      0.6508444444       3
     3886  3885  3887  3888    1  0.0000000000      0.6508444444       3
     3883  3885  3887  6332    1  0.0000000000      0.6508444444       3
     6333  3885  3887  3888    1  0.0000000000      0.6508444444       3
     4740  4745  4746  4747    1  180.0000000000    15.1670000000      2
     4740  4745  4746  5541    1  180.0000000000    15.1670000000      2
     4740  4745  5543  5541    1  180.0000000000    1.0041600000       2
     4746  4745  5543  5541    1  180.0000000000    1.0041600000       2
     4740  4745  5543  5544    1  0.0000000000      0.0000000000       1
     4746  4745  5543  5544    1  0.0000000000      0.0000000000       1
     4740  4745  5543  5545    1  180.0000000000    1.0041600000       2
     4746  4745  5543  5545    1  180.0000000000    1.0041600000       2
     4745  4746  4747  4738    1  180.0000000000    15.1670000000      2
     5541  4746  4745  5543    1  180.0000000000    15.1670000000      2
     4745  4746  5541  5539    1  180.0000000000    1.0041600000       2
     4747  4746  5541  5539    1  180.0000000000    1.0041600000       2
     4745  4746  5541  5542    1  0.0000000000      0.0000000000       1
     4747  4746  5541  5542    1  0.0000000000      0.0000000000       1
     4745  4746  5541  5543    1  180.0000000000    1.0041600000       2
     4747  4746  5541  5543    1  180.0000000000    1.0041600000       2
     4747  4746  4745  5543    1  180.0000000000    15.1670000000      2
     3879  3881  3883  3884    1  0.0000000000      0.5439200000       3
     3879  3881  3883  3891    1  0.0000000000      2.1756800000       3
     3882  3881  3883  3884    1  0.0000000000      0.5020800000       3
     3882  3881  3883  3891    1  0.0000000000      0.5439200000       3
     3894  3881  3883  3884    1  0.0000000000      0.6508444444       3
     3894  3881  3883  3891    1  0.0000000000      0.6508444444       3
     3879  3881  3894  3878    1  180.0000000000    1.0041600000       2
     3879  3881  3894  3895    1  180.0000000000    1.0041600000       2
     3882  3881  3894  3878    1  0.0000000000      0.0000000000       1
     3882  3881  3894  3895    1  0.0000000000      0.0000000000       1
     3883  3881  3894  3878    1  180.0000000000    1.0041600000       2
     3883  3881  3894  3895    1  180.0000000000    1.0041600000       2
     359   375   376   355     1  180.0000000000    15.1670000000      2
     359   375   376   377     1  180.0000000000    15.1670000000      2
     362   375   376   355     1  180.0000000000    15.1670000000      2
     362   375   376   377     1  180.0000000000    15.1670000000      2
     525   527   529   530     1  180.0000000000    1.0041600000       2
     525   527   529   538     1  180.0000000000    1.0041600000       2
     528   527   529   530     1  0.0000000000      0.0000000000       1
     528   527   529   538     1  0.0000000000      0.0000000000       1
     543   527   529   530     1  180.0000000000    1.0041600000       2
     543   527   529   538     1  180.0000000000    1.0041600000       2
     525   527   543   530     1  0.0000000000      0.6508444444       3
     525   527   543   544     1  0.0000000000      0.6508444444       3
     525   527   543   545     1  0.0000000000      0.6508444444       3
     528   527   543   530     1  0.0000000000      0.6508444444       3
     528   527   543   544     1  0.0000000000      0.6508444444       3
     528   527   543   545     1  0.0000000000      0.6508444444       3
     529   527   543   530     1  0.0000000000      0.6508444444       3
     529   527   543   544     1  0.0000000000      0.6508444444       3
     529   527   543   545     1  0.0000000000      0.6508444444       3
     3889  3887  3885  3886    1  0.0000000000      0.6508444444       3
     6332  3887  3885  3886    1  0.0000000000      0.6508444444       3
     6332  3887  3885  6333    1  0.0000000000      0.6508444444       3
     3889  3887  3885  6333    1  0.0000000000      0.6508444444       3
     359   360   362   363     1  0.0000000000      0.6508444444       3
     359   360   362   364     1  0.0000000000      0.6508444444       3
     359   360   362   375     1  0.0000000000      0.6508444444       3
     361   360   362   363     1  0.0000000000      0.6508444444       3
     361   360   362   364     1  0.0000000000      0.6508444444       3
     361   360   362   375     1  0.0000000000      0.6508444444       3
     370   360   362   363     1  0.0000000000      0.6508444444       3
     370   360   362   364     1  0.0000000000      0.6508444444       3
     370   360   362   375     1  0.0000000000      0.6508444444       3
     359   360   370   371     1  0.0000000000      0.6508444444       3
     359   360   370   372     1  0.0000000000      0.6508444444       3
     361   360   370   371     1  0.0000000000      0.5020800000       3
     361   360   370   372     1  0.0000000000      0.5439200000       3
     362   360   370   371     1  0.0000000000      0.5439200000       3
     362   360   370   372     1  0.0000000000      2.1756800000       3
     5541  5539  5537  5535    1  0.0000000000      2.1756800000       3
     5541  5539  5537  5538    1  0.0000000000      0.5439200000       3
     5541  5539  5537  5550    1  0.0000000000      0.6508444444       3
     5537  5539  5541  5542    1  0.0000000000      0.5439200000       3
     5537  5539  5541  5543    1  0.0000000000      2.1756800000       3
     5540  5539  5541  5542    1  0.0000000000      0.5020800000       3
     5540  5539  5541  5543    1  0.0000000000      0.5439200000       3
     5547  5539  5541  5542    1  0.0000000000      0.5439200000       3
     5547  5539  5541  5543    1  0.0000000000      2.1756800000       3
     5537  5539  5547  5545    1  0.0000000000      0.6508444444       3
     5537  5539  5547  5548    1  0.0000000000      0.6508444444       3
     5537  5539  5547  5549    1  0.0000000000      0.6508444444       3
     5540  5539  5547  5545    1  0.0000000000      0.5439200000       3
     5540  5539  5547  5548    1  0.0000000000      0.5020800000       3
     5540  5539  5547  5549    1  0.0000000000      0.5020800000       3
     5541  5539  5547  5548    1  0.0000000000      0.6508444444       3
     5541  5539  5547  5549    1  0.0000000000      0.6508444444       3
     5537  5539  5541  4746    1  0.0000000000      0.6508444444       3
     5540  5539  5541  4746    1  0.0000000000      0.6508444444       3
     5547  5539  5541  4746    1  0.0000000000      0.6508444444       3
     517   518   520   521     1  180.0000000000    15.1670000000      2
     517   518   520   550     1  180.0000000000    15.1670000000      2
     519   518   520   521     1  180.0000000000    15.1670000000      2
     519   518   520   550     1  180.0000000000    15.1670000000      2
     5545  5547  5539  5541    1  0.0000000000      0.6508444444       3
     5539  5547  5545  5543    1  0.0000000000      0.6508444444       3
     6332  6333  6334  6325    1  180.0000000000    15.1670000000      2
     6334  6333  6332  3887    1  180.0000000000    15.1670000000      2
     6332  6333  3885  3883    1  180.0000000000    1.0041600000       2
     6334  6333  3885  3883    1  180.0000000000    1.0041600000       2
     6332  6333  3885  3886    1  0.0000000000      0.0000000000       1
     6334  6333  3885  3886    1  0.0000000000      0.0000000000       1
     6332  6333  3885  3887    1  180.0000000000    1.0041600000       2
     6334  6333  3885  3887    1  180.0000000000    1.0041600000       2
     5535  5537  5539  5540    1  0.0000000000      0.5439200000       3
     5535  5537  5539  5547    1  0.0000000000      2.1756800000       3
     5538  5537  5539  5540    1  0.0000000000      0.5020800000       3
     5538  5537  5539  5547    1  0.0000000000      0.5439200000       3
     5550  5537  5539  5540    1  0.0000000000      0.6508444444       3
     5550  5537  5539  5547    1  0.0000000000      0.6508444444       3
     5535  5537  5550  5534    1  180.0000000000    1.0041600000       2
     5535  5537  5550  5551    1  180.0000000000    1.0041600000       2
     5538  5537  5550  5534    1  0.0000000000      0.0000000000       1
     5538  5537  5550  5551    1  0.0000000000      0.0000000000       1
     5539  5537  5550  5534    1  180.0000000000    1.0041600000       2
     5539  5537  5550  5551    1  180.0000000000    1.0041600000       2
     6332  6327  6326  6339    1  180.0000000000    15.1670000000      2
     6326  6327  6328  6329    1  0.0000000000      0.0000000000       2
     6326  6327  6328  6330    1  0.0000000000      0.0000000000       2
     6326  6327  6328  6331    1  0.0000000000      0.0000000000       2
     6326  6327  6332  6333    1  180.0000000000    15.1670000000      2
     6328  6327  6332  6333    1  180.0000000000    15.1670000000      2
     6326  6327  6332  3887    1  180.0000000000    15.1670000000      2
     6328  6327  6332  3887    1  180.0000000000    15.1670000000      2
     495   497   498   499     1  0.0000000000      0.0000000000       1
     495   497   498   500     1  180.0000000000    1.0041600000       2
     495   497   498   508     1  180.0000000000    1.0041600000       2
     513   497   498   499     1  0.0000000000      0.0000000000       1
     513   497   498   500     1  180.0000000000    1.0041600000       2
     513   497   498   508     1  180.0000000000    1.0041600000       2
     495   497   513   500     1  180.0000000000    15.1670000000      2
     495   497   513   514     1  180.0000000000    15.1670000000      2
     498   497   513   500     1  180.0000000000    15.1670000000      2
     498   497   513   514     1  180.0000000000    15.1670000000      2
     6327  6332  6333  6334    1  180.0000000000    15.1670000000      2
     3887  6332  6333  3885    1  180.0000000000    15.1670000000      2
     6327  6332  3887  3888    1  0.0000000000      0.0000000000       1
     6333  6332  3887  3888    1  0.0000000000      0.0000000000       1
     6327  6332  3887  3889    1  180.0000000000    1.0041600000       2
     6333  6332  3887  3889    1  180.0000000000    1.0041600000       2
     6327  6332  3887  3885    1  180.0000000000    1.0041600000       2
     6333  6332  3887  3885    1  180.0000000000    1.0041600000       2
     6327  6332  6333  3885    1  180.0000000000    15.1670000000      2
     6325  6326  6327  6328    1  180.0000000000    15.1670000000      2
     6325  6326  6327  6332    1  180.0000000000    15.1670000000      2
     6339  6326  6327  6328    1  180.0000000000    15.1670000000      2
     6325  6326  6339  6323    1  180.0000000000    1.0041600000       2
     6325  6326  6339  6340    1  0.0000000000      0.0000000000       1
     6325  6326  6339  6341    1  180.0000000000    1.0041600000       2
     6327  6326  6339  6323    1  180.0000000000    1.0041600000       2
     6327  6326  6339  6340    1  0.0000000000      0.0000000000       1
     6327  6326  6339  6341    1  180.0000000000    1.0041600000       2
     488   493   494   495     1  180.0000000000    15.1670000000      2
     488   493   494   516     1  180.0000000000    15.1670000000      2
     514   493   494   495     1  180.0000000000    15.1670000000      2
     514   493   494   516     1  180.0000000000    15.1670000000      2
     488   493   514   513     1  180.0000000000    15.1670000000      2
     488   493   514   515     1  180.0000000000    15.1670000000      2
     494   493   514   513     1  180.0000000000    15.1670000000      2
     494   493   514   515     1  180.0000000000    15.1670000000      2
     3885  3883  3881  3879    1  0.0000000000      2.1756800000       3
     3885  3883  3881  3882    1  0.0000000000      0.5439200000       3
     3885  3883  3881  3894    1  0.0000000000      0.6508444444       3
     3881  3883  3885  3886    1  0.0000000000      0.5439200000       3
     3881  3883  3885  3887    1  0.0000000000      2.1756800000       3
     3884  3883  3885  3886    1  0.0000000000      0.5020800000       3
     3884  3883  3885  3887    1  0.0000000000      0.5439200000       3
     3891  3883  3885  3886    1  0.0000000000      0.5439200000       3
     3891  3883  3885  3887    1  0.0000000000      2.1756800000       3
     3881  3883  3891  3889    1  0.0000000000      0.6508444444       3
     3881  3883  3891  3892    1  0.0000000000      0.6508444444       3
     3881  3883  3891  3893    1  0.0000000000      0.6508444444       3
     3884  3883  3891  3889    1  0.0000000000      0.5439200000       3
     3884  3883  3891  3892    1  0.0000000000      0.5020800000       3
     3884  3883  3891  3893    1  0.0000000000      0.5020800000       3
     3885  3883  3891  3892    1  0.0000000000      0.6508444444       3
     3885  3883  3891  3893    1  0.0000000000      0.6508444444       3
     3881  3883  3885  6333    1  0.0000000000      0.6508444444       3
     3884  3883  3885  6333    1  0.0000000000      0.6508444444       3
     3891  3883  3885  6333    1  0.0000000000      0.6508444444       3
     6323  6325  6326  6327    1  180.0000000000    15.1670000000      2
     6323  6325  6326  6339    1  180.0000000000    15.1670000000      2
     6334  6325  6326  6327    1  180.0000000000    15.1670000000      2
     6334  6325  6326  6339    1  180.0000000000    15.1670000000      2
     6323  6325  6334  6335    1  180.0000000000    15.1670000000      2
     6326  6325  6334  6333    1  180.0000000000    15.1670000000      2
     6326  6325  6334  6335    1  180.0000000000    15.1670000000      2
     6323  6339  6341  6317    1  0.0000000000      2.1756800000       3
     6323  6339  6341  6342    1  0.0000000000      0.5439200000       3
     6323  6339  6341  6343    1  0.0000000000      2.1756800000       3
     6326  6339  6341  6317    1  0.0000000000      0.6508444444       3
     6326  6339  6341  6342    1  0.0000000000      0.6508444444       3
     6326  6339  6341  6343    1  0.0000000000      0.6508444444       3
     6340  6339  6341  6317    1  0.0000000000      0.5439200000       3
     6340  6339  6341  6342    1  0.0000000000      0.5020800000       3
     6340  6339  6341  6343    1  0.0000000000      0.5439200000       3
     356   357   359   360     1  180.0000000000    15.1670000000      2
     356   357   359   375     1  180.0000000000    15.1670000000      2
     358   357   359   360     1  180.0000000000    15.1670000000      2
     358   357   359   375     1  180.0000000000    15.1670000000      2
     3193  3195  3197  3198    1  0.0000000000      0.6508444444       3
     3193  3195  3197  3199    1  0.0000000000      0.6508444444       3
     3196  3195  3197  3198    1  0.0000000000      0.6508444444       3
     3193  3195  3197  1226    1  0.0000000000      0.6508444444       3
     1227  3195  3197  3198    1  0.0000000000      0.6508444444       3
     3191  3193  3195  3196    1  0.0000000000      0.5439200000       3
     3191  3193  3195  3197    1  0.0000000000      2.1756800000       3
     3194  3193  3195  3196    1  0.0000000000      0.5020800000       3
     3194  3193  3195  3197    1  0.0000000000      0.5439200000       3
     3201  3193  3195  3196    1  0.0000000000      0.5439200000       3
     3201  3193  3195  3197    1  0.0000000000      2.1756800000       3
     3191  3193  3201  3199    1  0.0000000000      0.6508444444       3
     3191  3193  3201  3202    1  0.0000000000      0.6508444444       3
     3191  3193  3201  3203    1  0.0000000000      0.6508444444       3
     3194  3193  3201  3199    1  0.0000000000      0.5439200000       3
     3194  3193  3201  3202    1  0.0000000000      0.5020800000       3
     3194  3193  3201  3203    1  0.0000000000      0.5020800000       3
     3195  3193  3201  3202    1  0.0000000000      0.6508444444       3
     3195  3193  3201  3203    1  0.0000000000      0.6508444444       3
     3195  3193  3191  3189    1  0.0000000000      2.1756800000       3
     3195  3193  3191  3192    1  0.0000000000      0.5439200000       3
     3195  3193  3191  3204    1  0.0000000000      0.6508444444       3
     3194  3193  3195  1227    1  0.0000000000      0.6508444444       3
     3201  3193  3195  1227    1  0.0000000000      0.6508444444       3
     3191  3193  3195  1227    1  0.0000000000      0.6508444444       3
     3189  3191  3193  3194    1  0.0000000000      0.5439200000       3
     3189  3191  3193  3201    1  0.0000000000      2.1756800000       3
     3192  3191  3193  3194    1  0.0000000000      0.5020800000       3
     3192  3191  3193  3201    1  0.0000000000      0.5439200000       3
     3204  3191  3193  3194    1  0.0000000000      0.6508444444       3
     3204  3191  3193  3201    1  0.0000000000      0.6508444444       3
     3189  3191  3204  3188    1  180.0000000000    1.0041600000       2
     3189  3191  3204  3205    1  180.0000000000    1.0041600000       2
     3192  3191  3204  3188    1  0.0000000000      0.0000000000       1
     3192  3191  3204  3205    1  0.0000000000      0.0000000000       1
     3193  3191  3204  3188    1  180.0000000000    1.0041600000       2
     3193  3191  3204  3205    1  180.0000000000    1.0041600000       2
     6329  6328  6327  6332    1  0.0000000000      0.0000000000       2
     6330  6328  6327  6332    1  0.0000000000      0.0000000000       2
     6331  6328  6327  6332    1  0.0000000000      0.0000000000       2
     523   525   527   528     1  0.0000000000      0.5439200000       3
     523   525   527   529     1  0.0000000000      0.6508444444       3
     523   525   527   543     1  0.0000000000      2.1756800000       3
     526   525   527   528     1  0.0000000000      0.5020800000       3
     526   525   527   529     1  0.0000000000      0.6508444444       3
     526   525   527   543     1  0.0000000000      0.5439200000       3
     547   525   527   528     1  0.0000000000      0.5439200000       3
     547   525   527   529     1  0.0000000000      0.6508444444       3
     547   525   527   543     1  0.0000000000      2.1756800000       3
     523   525   547   545     1  0.0000000000      0.6508444444       3
     523   525   547   548     1  0.0000000000      0.6508444444       3
     523   525   547   549     1  0.0000000000      0.6508444444       3
     526   525   547   545     1  0.0000000000      0.5439200000       3
     526   525   547   548     1  0.0000000000      0.5020800000       3
     526   525   547   549     1  0.0000000000      0.5020800000       3
     527   525   547   545     1  0.0000000000      0.6508444444       3
     527   525   547   548     1  0.0000000000      0.6508444444       3
     527   525   547   549     1  0.0000000000      0.6508444444       3
     529   530   531   532     1  180.0000000000    15.1670000000      2
     529   530   531   536     1  180.0000000000    15.1670000000      2
     543   530   531   532     1  180.0000000000    15.1670000000      2
     529   530   543   527     1  180.0000000000    1.0041600000       2
     529   530   543   544     1  0.0000000000      0.0000000000       1
     529   530   543   545     1  180.0000000000    1.0041600000       2
     531   530   543   527     1  180.0000000000    1.0041600000       2
     531   530   543   544     1  0.0000000000      0.0000000000       1
     531   530   543   545     1  180.0000000000    1.0041600000       2
     1322  1323  1325  1326    1  180.0000000000    15.1670000000      2
     1322  1323  1325  1341    1  180.0000000000    15.1670000000      2
     1324  1323  1325  1326    1  180.0000000000    15.1670000000      2
     1324  1323  1325  1341    1  180.0000000000    15.1670000000      2
     5384  5383  5387  5388    1  0.0000000000      0.5439200000       3
     5384  5383  5387  5392    1  0.0000000000      0.6508444444       3
     5384  5383  5387  5416    1  0.0000000000      0.6508444444       3
     5385  5383  5387  5388    1  0.0000000000      0.5439200000       3
     5385  5383  5387  5392    1  0.0000000000      0.6508444444       3
     5385  5383  5387  5416    1  0.0000000000      0.6508444444       3
     5386  5383  5387  5388    1  0.0000000000      0.5439200000       3
     5386  5383  5387  5392    1  0.0000000000      0.6508444444       3
     5386  5383  5387  5416    1  0.0000000000      0.6508444444       3
     521   523   525   526     1  0.0000000000      0.5439200000       3
     521   523   525   527     1  0.0000000000      2.1756800000       3
     521   523   525   547     1  0.0000000000      2.1756800000       3
     524   523   525   526     1  0.0000000000      0.5020800000       3
     524   523   525   527     1  0.0000000000      0.5439200000       3
     524   523   525   547     1  0.0000000000      0.5439200000       3
     550   523   525   526     1  0.0000000000      0.6508444444       3
     550   523   525   527     1  0.0000000000      0.6508444444       3
     550   523   525   547     1  0.0000000000      0.6508444444       3
     521   523   550   520     1  180.0000000000    1.0041600000       2
     521   523   550   551     1  180.0000000000    1.0041600000       2
     524   523   550   520     1  0.0000000000      0.0000000000       1
     524   523   550   551     1  0.0000000000      0.0000000000       1
     525   523   550   520     1  180.0000000000    1.0041600000       2
     525   523   550   551     1  180.0000000000    1.0041600000       2
     1326  1328  1330  1331    1  0.0000000000      0.5439200000       3
     1326  1328  1330  1338    1  0.0000000000      2.1756800000       3
     1329  1328  1330  1331    1  0.0000000000      0.5020800000       3
     1329  1328  1330  1338    1  0.0000000000      0.5439200000       3
     1341  1328  1330  1331    1  0.0000000000      0.6508444444       3
     1341  1328  1330  1338    1  0.0000000000      0.6508444444       3
     1326  1328  1341  1325    1  180.0000000000    1.0041600000       2
     1326  1328  1341  1342    1  180.0000000000    1.0041600000       2
     1329  1328  1341  1325    1  0.0000000000      0.0000000000       1
     1329  1328  1341  1342    1  0.0000000000      0.0000000000       1
     1330  1328  1341  1325    1  180.0000000000    1.0041600000       2
     1330  1328  1341  1342    1  180.0000000000    1.0041600000       2
     5534  5550  5551  5530    1  180.0000000000    15.1670000000      2
     5534  5550  5551  5552    1  180.0000000000    15.1670000000      2
     5537  5550  5551  5530    1  180.0000000000    15.1670000000      2
     5537  5550  5551  5552    1  180.0000000000    15.1670000000      2
     521   545   547   525     1  0.0000000000      0.6508444444       3
     521   545   547   548     1  0.0000000000      0.6508444444       3
     521   545   547   549     1  0.0000000000      0.6508444444       3
     543   545   547   525     1  0.0000000000      0.6508444444       3
     543   545   547   548     1  0.0000000000      0.6508444444       3
     543   545   547   549     1  0.0000000000      0.6508444444       3
     546   545   547   525     1  0.0000000000      0.5439200000       3
     546   545   547   548     1  0.0000000000      0.5020800000       3
     546   545   547   549     1  0.0000000000      0.5020800000       3
     5387  5416  5417  5418    1  180.0000000000    15.1670000000      2
     5387  5416  5417  5419    1  180.0000000000    15.1670000000      2
     5415  5416  5417  5418    1  180.0000000000    15.1670000000      2
     5415  5416  5417  5419    1  180.0000000000    15.1670000000      2
     5525  5530  5531  5532    1  180.0000000000    15.1670000000      2
     5525  5530  5531  5553    1  180.0000000000    15.1670000000      2
     5551  5530  5531  5532    1  180.0000000000    15.1670000000      2
     5551  5530  5531  5553    1  180.0000000000    15.1670000000      2
     5525  5530  5551  5550    1  180.0000000000    15.1670000000      2
     5525  5530  5551  5552    1  180.0000000000    15.1670000000      2
     5531  5530  5551  5550    1  180.0000000000    15.1670000000      2
     5531  5530  5551  5552    1  180.0000000000    15.1670000000      2
     1312  1316  1317  1318    1  0.0000000000      0.5439200000       3
     1312  1316  1317  1319    1  0.0000000000      0.5439200000       3
     1312  1316  1317  1320    1  0.0000000000      0.5439200000       3
     1321  1316  1317  1318    1  0.0000000000      0.6508444444       3
     1321  1316  1317  1319    1  0.0000000000      0.6508444444       3
     1321  1316  1317  1320    1  0.0000000000      0.6508444444       3
     1345  1316  1317  1318    1  0.0000000000      0.6508444444       3
     1345  1316  1317  1319    1  0.0000000000      0.6508444444       3
     1345  1316  1317  1320    1  0.0000000000      0.6508444444       3
     1312  1316  1321  1322    1  0.0000000000      0.0000000000       2
     1312  1316  1321  1342    1  180.0000000000    1.0041600000       2
     1317  1316  1321  1322    1  0.0000000000      0.0000000000       2
     1317  1316  1321  1342    1  180.0000000000    1.0041600000       2
     1345  1316  1321  1322    1  0.0000000000      0.0000000000       2
     1345  1316  1321  1342    1  180.0000000000    0.0000000000       2
     1312  1316  1345  1344    1  0.0000000000      0.0000000000       2
     1312  1316  1345  1346    1  180.0000000000    1.0041600000       2
     1317  1316  1345  1344    1  0.0000000000      0.0000000000       2
     1317  1316  1345  1346    1  180.0000000000    1.0041600000       2
     1321  1316  1345  1344    1  0.0000000000      0.0000000000       2
     1321  1316  1345  1346    1  180.0000000000    0.0000000000       2
     3878  3894  3895  3874    1  180.0000000000    15.1670000000      2
     3878  3894  3895  3896    1  180.0000000000    15.1670000000      2
     3881  3894  3895  3874    1  180.0000000000    15.1670000000      2
     3881  3894  3895  3896    1  180.0000000000    15.1670000000      2
     1330  1332  1334  1335    1  0.0000000000      0.6508444444       3
     1330  1332  1334  1336    1  0.0000000000      0.6508444444       3
     1333  1332  1334  1335    1  0.0000000000      0.6508444444       3
     5574  1332  1334  1335    1  0.0000000000      0.6508444444       3
     5574  1332  1334  5573    1  0.0000000000      0.6508444444       3
     1330  1332  1334  5573    1  0.0000000000      0.6508444444       3
     5530  5531  5532  5533    1  180.0000000000    15.1670000000      2
     5530  5531  5532  5534    1  180.0000000000    15.1670000000      2
     5553  5531  5532  5533    1  180.0000000000    15.1670000000      2
     5553  5531  5532  5534    1  180.0000000000    15.1670000000      2
     5530  5531  5553  5554    1  180.0000000000    4.1840000000       2
     5530  5531  5553  5588    1  180.0000000000    4.1840000000       2
     5532  5531  5553  5554    1  180.0000000000    4.1840000000       2
     5532  5531  5553  5588    1  180.0000000000    4.1840000000       2
     5532  5534  5535  5536    1  0.0000000000      0.0000000000       1
     5532  5534  5535  5537    1  180.0000000000    1.0041600000       2
     5532  5534  5535  5545    1  180.0000000000    1.0041600000       2
     5550  5534  5535  5536    1  0.0000000000      0.0000000000       1
     5550  5534  5535  5537    1  180.0000000000    1.0041600000       2
     5550  5534  5535  5545    1  180.0000000000    1.0041600000       2
     5532  5534  5550  5537    1  180.0000000000    15.1670000000      2
     5532  5534  5550  5551    1  180.0000000000    15.1670000000      2
     5535  5534  5550  5537    1  180.0000000000    15.1670000000      2
     5535  5534  5550  5551    1  180.0000000000    15.1670000000      2
     5521  5525  5526  5527    1  0.0000000000      0.5439200000       3
     5521  5525  5526  5528    1  0.0000000000      0.5439200000       3
     5521  5525  5526  5529    1  0.0000000000      0.5439200000       3
     5530  5525  5526  5527    1  0.0000000000      0.6508444444       3
     5530  5525  5526  5528    1  0.0000000000      0.6508444444       3
     5530  5525  5526  5529    1  0.0000000000      0.6508444444       3
     5554  5525  5526  5527    1  0.0000000000      0.6508444444       3
     5554  5525  5526  5528    1  0.0000000000      0.6508444444       3
     5554  5525  5526  5529    1  0.0000000000      0.6508444444       3
     5521  5525  5530  5531    1  0.0000000000      0.0000000000       2
     5521  5525  5530  5551    1  180.0000000000    1.0041600000       2
     5526  5525  5530  5531    1  0.0000000000      0.0000000000       2
     5526  5525  5530  5551    1  180.0000000000    1.0041600000       2
     5554  5525  5530  5531    1  0.0000000000      0.0000000000       2
     5554  5525  5530  5551    1  180.0000000000    0.0000000000       2
     5521  5525  5554  5553    1  0.0000000000      0.0000000000       2
     5521  5525  5554  5555    1  180.0000000000    1.0041600000       2
     5526  5525  5554  5553    1  0.0000000000      0.0000000000       2
     5526  5525  5554  5555    1  180.0000000000    1.0041600000       2
     5530  5525  5554  5553    1  0.0000000000      0.0000000000       2
     5530  5525  5554  5555    1  180.0000000000    0.0000000000       2
     5416  5417  5419  5420    1  180.0000000000    15.1670000000      2
     5416  5417  5419  5449    1  180.0000000000    15.1670000000      2
     5418  5417  5419  5420    1  180.0000000000    15.1670000000      2
     5418  5417  5419  5449    1  180.0000000000    15.1670000000      2
     5419  5449  5450  5415    1  180.0000000000    15.1670000000      2
     5419  5449  5450  5451    1  180.0000000000    15.1670000000      2
     5422  5449  5450  5415    1  180.0000000000    15.1670000000      2
     5422  5449  5450  5451    1  180.0000000000    15.1670000000      2
     5417  5419  5420  5421    1  0.0000000000      0.0000000000       1
     5417  5419  5420  5422    1  180.0000000000    1.0041600000       2
     5417  5419  5420  5444    1  180.0000000000    1.0041600000       2
     5449  5419  5420  5421    1  0.0000000000      0.0000000000       1
     5449  5419  5420  5422    1  180.0000000000    1.0041600000       2
     5449  5419  5420  5444    1  180.0000000000    1.0041600000       2
     5417  5419  5449  5422    1  180.0000000000    15.1670000000      2
     5417  5419  5449  5450    1  180.0000000000    15.1670000000      2
     5420  5419  5449  5422    1  180.0000000000    15.1670000000      2
     5420  5419  5449  5450    1  180.0000000000    15.1670000000      2
     5531  5532  5534  5535    1  180.0000000000    15.1670000000      2
     5531  5532  5534  5550    1  180.0000000000    15.1670000000      2
     5533  5532  5534  5535    1  180.0000000000    15.1670000000      2
     5533  5532  5534  5550    1  180.0000000000    15.1670000000      2
     518   520   521   522     1  0.0000000000      0.0000000000       1
     518   520   521   523     1  180.0000000000    1.0041600000       2
     518   520   521   545     1  180.0000000000    1.0041600000       2
     550   520   521   522     1  0.0000000000      0.0000000000       1
     550   520   521   523     1  180.0000000000    1.0041600000       2
     550   520   521   545     1  180.0000000000    1.0041600000       2
     518   520   550   523     1  180.0000000000    15.1670000000      2
     518   520   550   551     1  180.0000000000    15.1670000000      2
     521   520   550   523     1  180.0000000000    15.1670000000      2
     521   520   550   551     1  180.0000000000    15.1670000000      2
     520   521   523   524     1  0.0000000000      0.6508444444       3
     520   521   523   525     1  0.0000000000      0.6508444444       3
     520   521   523   550     1  0.0000000000      0.6508444444       3
     522   521   523   524     1  0.0000000000      0.6508444444       3
     522   521   523   525     1  0.0000000000      0.6508444444       3
     522   521   523   550     1  0.0000000000      0.6508444444       3
     545   521   523   524     1  0.0000000000      0.6508444444       3
     545   521   523   525     1  0.0000000000      0.6508444444       3
     545   521   523   550     1  0.0000000000      0.6508444444       3
     520   521   545   543     1  0.0000000000      0.6508444444       3
     520   521   545   546     1  0.0000000000      0.6508444444       3
     520   521   545   547     1  0.0000000000      0.6508444444       3
     522   521   545   543     1  0.0000000000      0.5439200000       3
     522   521   545   546     1  0.0000000000      0.5020800000       3
     522   521   545   547     1  0.0000000000      0.5439200000       3
     523   521   545   543     1  0.0000000000      2.1756800000       3
     523   521   545   546     1  0.0000000000      0.5439200000       3
     523   521   545   547     1  0.0000000000      2.1756800000       3
     1316  1321  1322  1323    1  180.0000000000    15.1670000000      2
     1316  1321  1322  1344    1  180.0000000000    15.1670000000      2
     1342  1321  1322  1323    1  180.0000000000    15.1670000000      2
     1342  1321  1322  1344    1  180.0000000000    15.1670000000      2
     1316  1321  1342  1341    1  180.0000000000    15.1670000000      2
     1316  1321  1342  1343    1  180.0000000000    15.1670000000      2
     1322  1321  1342  1341    1  180.0000000000    15.1670000000      2
     1322  1321  1342  1343    1  180.0000000000    15.1670000000      2
     1321  1322  1323  1324    1  180.0000000000    15.1670000000      2
     1321  1322  1323  1325    1  180.0000000000    15.1670000000      2
     1344  1322  1323  1324    1  180.0000000000    15.1670000000      2
     1344  1322  1323  1325    1  180.0000000000    15.1670000000      2
     1321  1322  1344  1345    1  180.0000000000    4.1840000000       2
     1321  1322  1344  1379    1  180.0000000000    4.1840000000       2
     1323  1322  1344  1345    1  180.0000000000    4.1840000000       2
     1323  1322  1344  1379    1  180.0000000000    4.1840000000       2
     1322  1344  1345  1316    1  180.0000000000    15.1670000000      2
     1322  1344  1345  1346    1  180.0000000000    15.1670000000      2
     1379  1344  1345  1316    1  180.0000000000    15.1670000000      2
     1379  1344  1345  1346    1  180.0000000000    15.1670000000      2
     1322  1344  1379  1378    1  180.0000000000    15.1670000000      2
     1322  1344  1379  1380    1  180.0000000000    15.1670000000      2
     1345  1344  1379  1378    1  180.0000000000    15.1670000000      2
     1345  1344  1379  1380    1  180.0000000000    15.1670000000      2
     1325  1341  1342  1321    1  180.0000000000    15.1670000000      2
     1325  1341  1342  1343    1  180.0000000000    15.1670000000      2
     1328  1341  1342  1321    1  180.0000000000    15.1670000000      2
     1328  1341  1342  1343    1  180.0000000000    15.1670000000      2
     1336  1334  1332  1333    1  0.0000000000      0.6508444444       3
     1336  1334  1332  5574    1  0.0000000000      0.6508444444       3
     5573  1334  1332  1333    1  0.0000000000      0.6508444444       3
     5419  5420  5422  5423    1  0.0000000000      0.6508444444       3
     5419  5420  5422  5424    1  0.0000000000      0.6508444444       3
     5419  5420  5422  5449    1  0.0000000000      0.6508444444       3
     5421  5420  5422  5423    1  0.0000000000      0.6508444444       3
     5421  5420  5422  5424    1  0.0000000000      0.6508444444       3
     5421  5420  5422  5449    1  0.0000000000      0.6508444444       3
     5444  5420  5422  5423    1  0.0000000000      0.6508444444       3
     5444  5420  5422  5424    1  0.0000000000      0.6508444444       3
     5444  5420  5422  5449    1  0.0000000000      0.6508444444       3
     5419  5420  5444  5442    1  0.0000000000      0.6508444444       3
     5419  5420  5444  5445    1  0.0000000000      0.6508444444       3
     5419  5420  5444  5446    1  0.0000000000      0.6508444444       3
     5421  5420  5444  5442    1  0.0000000000      0.5439200000       3
     5421  5420  5444  5445    1  0.0000000000      0.5020800000       3
     5421  5420  5444  5446    1  0.0000000000      0.5439200000       3
     5422  5420  5444  5442    1  0.0000000000      2.1756800000       3
     5422  5420  5444  5445    1  0.0000000000      0.5439200000       3
     5422  5420  5444  5446    1  0.0000000000      2.1756800000       3
     1326  1336  1334  1332    1  0.0000000000      2.1756800000       3
     1337  1336  1334  1332    1  0.0000000000      0.5439200000       3
     1338  1336  1334  1332    1  0.0000000000      2.1756800000       3
     1326  1336  1334  1335    1  0.0000000000      0.5439200000       3
     1337  1336  1334  1335    1  0.0000000000      0.5020800000       3
     1338  1336  1334  1335    1  0.0000000000      0.5439200000       3
     1326  1336  1338  1330    1  0.0000000000      0.6508444444       3
     1326  1336  1338  1339    1  0.0000000000      0.6508444444       3
     1326  1336  1338  1340    1  0.0000000000      0.6508444444       3
     1334  1336  1338  1339    1  0.0000000000      0.6508444444       3
     1334  1336  1338  1340    1  0.0000000000      0.6508444444       3
     1337  1336  1338  1330    1  0.0000000000      0.5439200000       3
     1337  1336  1338  1339    1  0.0000000000      0.5020800000       3
     1337  1336  1338  1340    1  0.0000000000      0.5020800000       3
     1334  1336  1326  1325    1  0.0000000000      0.6508444444       3
     1334  1336  1326  1327    1  0.0000000000      0.5439200000       3
     1334  1336  1326  1328    1  0.0000000000      2.1756800000       3
     1337  1336  1334  5573    1  0.0000000000      0.6508444444       3
     1338  1336  1334  5573    1  0.0000000000      0.6508444444       3
     1326  1336  1334  5573    1  0.0000000000      0.6508444444       3
     5393  5415  5416  5387    1  180.0000000000    15.1670000000      2
     5393  5415  5416  5417    1  180.0000000000    15.1670000000      2
     5450  5415  5416  5387    1  180.0000000000    15.1670000000      2
     5450  5415  5416  5417    1  180.0000000000    15.1670000000      2
     5393  5415  5450  5449    1  180.0000000000    15.1670000000      2
     5393  5415  5450  5451    1  180.0000000000    15.1670000000      2
     5416  5415  5450  5449    1  180.0000000000    15.1670000000      2
     5416  5415  5450  5451    1  180.0000000000    15.1670000000      2
     1323  1325  1326  1327    1  0.0000000000      0.0000000000       1
     1323  1325  1326  1328    1  180.0000000000    1.0041600000       2
     1323  1325  1326  1336    1  180.0000000000    1.0041600000       2
     1341  1325  1326  1327    1  0.0000000000      0.0000000000       1
     1341  1325  1326  1328    1  180.0000000000    1.0041600000       2
     1341  1325  1326  1336    1  180.0000000000    1.0041600000       2
     1323  1325  1341  1328    1  180.0000000000    15.1670000000      2
     1323  1325  1341  1342    1  180.0000000000    15.1670000000      2
     1326  1325  1341  1328    1  180.0000000000    15.1670000000      2
     1326  1325  1341  1342    1  180.0000000000    15.1670000000      2
     1316  1345  1346  1347    1  180.0000000000    15.1670000000      2
     1316  1345  1346  1348    1  180.0000000000    15.1670000000      2
     1344  1345  1346  1347    1  180.0000000000    15.1670000000      2
     1344  1345  1346  1348    1  180.0000000000    15.1670000000      2
     5383  5387  5388  5389    1  0.0000000000      0.5439200000       3
     5383  5387  5388  5390    1  0.0000000000      0.5439200000       3
     5383  5387  5388  5391    1  0.0000000000      0.5439200000       3
     5392  5387  5388  5389    1  0.0000000000      0.6508444444       3
     5392  5387  5388  5390    1  0.0000000000      0.6508444444       3
     5392  5387  5388  5391    1  0.0000000000      0.6508444444       3
     5416  5387  5388  5389    1  0.0000000000      0.6508444444       3
     5416  5387  5388  5390    1  0.0000000000      0.6508444444       3
     5416  5387  5388  5391    1  0.0000000000      0.6508444444       3
     5383  5387  5392  5393    1  0.0000000000      0.0000000000       2
     5383  5387  5392  5413    1  180.0000000000    1.0041600000       2
     5388  5387  5392  5393    1  0.0000000000      0.0000000000       2
     5388  5387  5392  5413    1  180.0000000000    1.0041600000       2
     5416  5387  5392  5393    1  0.0000000000      0.0000000000       2
     5416  5387  5392  5413    1  180.0000000000    0.0000000000       2
     5383  5387  5416  5415    1  0.0000000000      0.0000000000       2
     5383  5387  5416  5417    1  180.0000000000    1.0041600000       2
     5388  5387  5416  5415    1  0.0000000000      0.0000000000       2
     5388  5387  5416  5417    1  180.0000000000    1.0041600000       2
     5392  5387  5416  5415    1  0.0000000000      0.0000000000       2
     5392  5387  5416  5417    1  180.0000000000    0.0000000000       2
     3176  3175  3179  3180    1  0.0000000000      0.5439200000       3
     3176  3175  3179  3184    1  0.0000000000      0.6508444444       3
     3176  3175  3179  3208    1  0.0000000000      0.6508444444       3
     3177  3175  3179  3180    1  0.0000000000      0.5439200000       3
     3177  3175  3179  3184    1  0.0000000000      0.6508444444       3
     3177  3175  3179  3208    1  0.0000000000      0.6508444444       3
     3178  3175  3179  3180    1  0.0000000000      0.5439200000       3
     3178  3175  3179  3184    1  0.0000000000      0.6508444444       3
     3178  3175  3179  3208    1  0.0000000000      0.6508444444       3
     1325  1326  1328  1329    1  0.0000000000      0.6508444444       3
     1325  1326  1328  1330    1  0.0000000000      0.6508444444       3
     1325  1326  1328  1341    1  0.0000000000      0.6508444444       3
     1327  1326  1328  1329    1  0.0000000000      0.6508444444       3
     1327  1326  1328  1330    1  0.0000000000      0.6508444444       3
     1327  1326  1328  1341    1  0.0000000000      0.6508444444       3
     1336  1326  1328  1329    1  0.0000000000      0.6508444444       3
     1336  1326  1328  1330    1  0.0000000000      0.6508444444       3
     1336  1326  1328  1341    1  0.0000000000      0.6508444444       3
     1325  1326  1336  1337    1  0.0000000000      0.6508444444       3
     1325  1326  1336  1338    1  0.0000000000      0.6508444444       3
     1327  1326  1336  1337    1  0.0000000000      0.5020800000       3
     1327  1326  1336  1338    1  0.0000000000      0.5439200000       3
     1328  1326  1336  1337    1  0.0000000000      0.5439200000       3
     1328  1326  1336  1338    1  0.0000000000      2.1756800000       3
     5522  5521  5525  5526    1  0.0000000000      0.5439200000       3
     5522  5521  5525  5530    1  0.0000000000      0.6508444444       3
     5522  5521  5525  5554    1  0.0000000000      0.6508444444       3
     5523  5521  5525  5526    1  0.0000000000      0.5439200000       3
     5523  5521  5525  5530    1  0.0000000000      0.6508444444       3
     5523  5521  5525  5554    1  0.0000000000      0.6508444444       3
     5524  5521  5525  5526    1  0.0000000000      0.5439200000       3
     5524  5521  5525  5530    1  0.0000000000      0.6508444444       3
     5524  5521  5525  5554    1  0.0000000000      0.6508444444       3
     527   543   545   521     1  0.0000000000      2.1756800000       3
     527   543   545   546     1  0.0000000000      0.5439200000       3
     527   543   545   547     1  0.0000000000      2.1756800000       3
     530   543   545   521     1  0.0000000000      0.6508444444       3
     530   543   545   546     1  0.0000000000      0.6508444444       3
     530   543   545   547     1  0.0000000000      0.6508444444       3
     544   543   545   521     1  0.0000000000      0.5439200000       3
     544   543   545   546     1  0.0000000000      0.5020800000       3
     544   543   545   547     1  0.0000000000      0.5439200000       3
     1328  1330  1332  1333    1  0.0000000000      0.5439200000       3
     1328  1330  1332  1334    1  0.0000000000      2.1756800000       3
     1331  1330  1332  1333    1  0.0000000000      0.5020800000       3
     1331  1330  1332  1334    1  0.0000000000      0.5439200000       3
     1338  1330  1332  1333    1  0.0000000000      0.5439200000       3
     1338  1330  1332  1334    1  0.0000000000      2.1756800000       3
     1328  1330  1338  1336    1  0.0000000000      0.6508444444       3
     1328  1330  1338  1339    1  0.0000000000      0.6508444444       3
     1328  1330  1338  1340    1  0.0000000000      0.6508444444       3
     1331  1330  1338  1336    1  0.0000000000      0.5439200000       3
     1331  1330  1338  1339    1  0.0000000000      0.5020800000       3
     1331  1330  1338  1340    1  0.0000000000      0.5020800000       3
     1332  1330  1338  1339    1  0.0000000000      0.6508444444       3
     1332  1330  1338  1340    1  0.0000000000      0.6508444444       3
     1332  1330  1328  1326    1  0.0000000000      2.1756800000       3
     1332  1330  1328  1329    1  0.0000000000      0.5439200000       3
     1332  1330  1328  1341    1  0.0000000000      0.6508444444       3
     1331  1330  1332  5574    1  0.0000000000      0.6508444444       3
     1338  1330  1332  5574    1  0.0000000000      0.6508444444       3
     1328  1330  1332  5574    1  0.0000000000      0.6508444444       3
     1330  1338  1336  1334    1  0.0000000000      0.6508444444       3
     1336  1338  1330  1332    1  0.0000000000      0.6508444444       3
     5568  5573  5574  5575    1  180.0000000000    15.1670000000      2
     5568  5573  5574  1332    1  180.0000000000    15.1670000000      2
     5574  5573  1334  1335    1  0.0000000000      0.0000000000       1
     5568  5573  1334  1335    1  0.0000000000      0.0000000000       1
     5574  5573  1334  1336    1  180.0000000000    1.0041600000       2
     5568  5573  1334  1336    1  180.0000000000    1.0041600000       2
     5574  5573  1334  1332    1  180.0000000000    1.0041600000       2
     5568  5573  1334  1332    1  180.0000000000    1.0041600000       2
     5573  5574  5575  5566    1  180.0000000000    15.1670000000      2
     1332  5574  5573  1334    1  180.0000000000    15.1670000000      2
     5573  5574  1332  1330    1  180.0000000000    1.0041600000       2
     5575  5574  1332  1330    1  180.0000000000    1.0041600000       2
     5573  5574  1332  1333    1  0.0000000000      0.0000000000       1
     5575  5574  1332  1333    1  0.0000000000      0.0000000000       1
     5573  5574  1332  1334    1  180.0000000000    1.0041600000       2
     5575  5574  1332  1334    1  180.0000000000    1.0041600000       2
     5575  5574  5573  1334    1  180.0000000000    15.1670000000      2
     6333  6334  6325  6323    1  180.0000000000    15.1670000000      2
     6335  6334  6333  6332    1  180.0000000000    15.1670000000      2
     6325  6334  6335  6336    1  0.0000000000      0.0000000000       2
     6325  6334  6335  6337    1  0.0000000000      0.0000000000       2
     6325  6334  6335  6338    1  0.0000000000      0.0000000000       2
     6325  6334  6333  3885    1  180.0000000000    15.1670000000      2
     6335  6334  6333  3885    1  180.0000000000    15.1670000000      2
     2430  2432  2434  2435    1  0.0000000000      0.5439200000       3
     2430  2432  2434  2442    1  0.0000000000      2.1756800000       3
     2433  2432  2434  2435    1  0.0000000000      0.5020800000       3
     2433  2432  2434  2442    1  0.0000000000      0.5439200000       3
     2445  2432  2434  2435    1  0.0000000000      0.6508444444       3
     2445  2432  2434  2442    1  0.0000000000      0.6508444444       3
     2430  2432  2445  2429    1  180.0000000000    1.0041600000       2
     2430  2432  2445  2446    1  180.0000000000    1.0041600000       2
     2433  2432  2445  2429    1  0.0000000000      0.0000000000       1
     2433  2432  2445  2446    1  0.0000000000      0.0000000000       1
     2434  2432  2445  2429    1  180.0000000000    1.0041600000       2
     2434  2432  2445  2446    1  180.0000000000    1.0041600000       2
     2436  2434  2432  2430    1  0.0000000000      2.1756800000       3
     2436  2434  2432  2433    1  0.0000000000      0.5439200000       3
     2436  2434  2432  2445    1  0.0000000000      0.6508444444       3
     2432  2434  2436  2437    1  0.0000000000      0.5439200000       3
     2432  2434  2436  2438    1  0.0000000000      2.1756800000       3
     2435  2434  2436  2437    1  0.0000000000      0.5020800000       3
     2435  2434  2436  2438    1  0.0000000000      0.5439200000       3
     2442  2434  2436  2437    1  0.0000000000      0.5439200000       3
     2442  2434  2436  2438    1  0.0000000000      2.1756800000       3
     2432  2434  2442  2440    1  0.0000000000      0.6508444444       3
     2432  2434  2442  2443    1  0.0000000000      0.6508444444       3
     2432  2434  2442  2444    1  0.0000000000      0.6508444444       3
     2435  2434  2442  2440    1  0.0000000000      0.5439200000       3
     2435  2434  2442  2443    1  0.0000000000      0.5020800000       3
     2435  2434  2442  2444    1  0.0000000000      0.5020800000       3
     2436  2434  2442  2443    1  0.0000000000      0.6508444444       3
     2436  2434  2442  2444    1  0.0000000000      0.6508444444       3
     2432  2434  2436  4125    1  0.0000000000      0.6508444444       3
     2435  2434  2436  4125    1  0.0000000000      0.6508444444       3
     2442  2434  2436  4125    1  0.0000000000      0.6508444444       3
     2434  2436  2438  2439    1  0.0000000000      0.6508444444       3
     2434  2436  2438  2440    1  0.0000000000      0.6508444444       3
     2437  2436  2438  2439    1  0.0000000000      0.6508444444       3
     4125  2436  2438  2439    1  0.0000000000      0.6508444444       3
     4125  2436  2438  4124    1  0.0000000000      0.6508444444       3
     2434  2436  2438  4124    1  0.0000000000      0.6508444444       3
     2434  2442  2440  2438    1  0.0000000000      0.6508444444       3
     2440  2442  2434  2436    1  0.0000000000      0.6508444444       3
     2429  2445  2446  2425    1  180.0000000000    15.1670000000      2
     2429  2445  2446  2447    1  180.0000000000    15.1670000000      2
     2432  2445  2446  2425    1  180.0000000000    15.1670000000      2
     2432  2445  2446  2447    1  180.0000000000    15.1670000000      2
     4730  4732  4734  4735    1  0.0000000000      0.5439200000       3
     4730  4732  4734  4736    1  0.0000000000      2.1756800000       3
     4730  4732  4734  4756    1  0.0000000000      2.1756800000       3
     4733  4732  4734  4735    1  0.0000000000      0.5020800000       3
     4733  4732  4734  4736    1  0.0000000000      0.5439200000       3
     4733  4732  4734  4756    1  0.0000000000      0.5439200000       3
     4759  4732  4734  4735    1  0.0000000000      0.6508444444       3
     4759  4732  4734  4736    1  0.0000000000      0.6508444444       3
     4759  4732  4734  4756    1  0.0000000000      0.6508444444       3
     4730  4732  4759  4729    1  180.0000000000    1.0041600000       2
     4730  4732  4759  4760    1  180.0000000000    1.0041600000       2
     4733  4732  4759  4729    1  0.0000000000      0.0000000000       1
     4733  4732  4759  4760    1  0.0000000000      0.0000000000       1
     4734  4732  4759  4729    1  180.0000000000    1.0041600000       2
     4734  4732  4759  4760    1  180.0000000000    1.0041600000       2
     4732  4734  4736  4737    1  0.0000000000      0.5439200000       3
     4732  4734  4736  4738    1  0.0000000000      0.6508444444       3
     4732  4734  4736  4752    1  0.0000000000      2.1756800000       3
     4735  4734  4736  4737    1  0.0000000000      0.5020800000       3
     4735  4734  4736  4738    1  0.0000000000      0.6508444444       3
     4735  4734  4736  4752    1  0.0000000000      0.5439200000       3
     4756  4734  4736  4737    1  0.0000000000      0.5439200000       3
     4756  4734  4736  4738    1  0.0000000000      0.6508444444       3
     4756  4734  4736  4752    1  0.0000000000      2.1756800000       3
     4732  4734  4756  4754    1  0.0000000000      0.6508444444       3
     4732  4734  4756  4757    1  0.0000000000      0.6508444444       3
     4732  4734  4756  4758    1  0.0000000000      0.6508444444       3
     4735  4734  4756  4754    1  0.0000000000      0.5439200000       3
     4735  4734  4756  4757    1  0.0000000000      0.5020800000       3
     4735  4734  4756  4758    1  0.0000000000      0.5020800000       3
     4736  4734  4756  4754    1  0.0000000000      0.6508444444       3
     4736  4734  4756  4757    1  0.0000000000      0.6508444444       3
     4736  4734  4756  4758    1  0.0000000000      0.6508444444       3
     4734  4736  4738  4739    1  180.0000000000    1.0041600000       2
     4734  4736  4738  4747    1  180.0000000000    1.0041600000       2
     4737  4736  4738  4739    1  0.0000000000      0.0000000000       1
     4737  4736  4738  4747    1  0.0000000000      0.0000000000       1
     4752  4736  4738  4739    1  180.0000000000    1.0041600000       2
     4752  4736  4738  4747    1  180.0000000000    1.0041600000       2
     4734  4736  4752  4739    1  0.0000000000      0.6508444444       3
     4734  4736  4752  4753    1  0.0000000000      0.6508444444       3
     4734  4736  4752  4754    1  0.0000000000      0.6508444444       3
     4737  4736  4752  4739    1  0.0000000000      0.6508444444       3
     4737  4736  4752  4753    1  0.0000000000      0.6508444444       3
     4737  4736  4752  4754    1  0.0000000000      0.6508444444       3
     4738  4736  4752  4739    1  0.0000000000      0.6508444444       3
     4738  4736  4752  4753    1  0.0000000000      0.6508444444       3
     4738  4736  4752  4754    1  0.0000000000      0.6508444444       3
     4124  4125  4126  4117    1  180.0000000000    15.1670000000      2
     2436  4125  4124  2438    1  180.0000000000    15.1670000000      2
     4124  4125  2436  2434    1  180.0000000000    1.0041600000       2
     4126  4125  2436  2434    1  180.0000000000    1.0041600000       2
     4124  4125  2436  2437    1  0.0000000000      0.0000000000       1
     4126  4125  2436  2437    1  0.0000000000      0.0000000000       1
     4124  4125  2436  2438    1  180.0000000000    1.0041600000       2
     4126  4125  2436  2438    1  180.0000000000    1.0041600000       2
     4126  4125  4124  2438    1  180.0000000000    15.1670000000      2
     4128  4127  4126  4125    1  0.0000000000      0.0000000000       2
     4129  4127  4126  4125    1  0.0000000000      0.0000000000       2
     4130  4127  4126  4125    1  0.0000000000      0.0000000000       2
     4125  4126  4117  4115    1  180.0000000000    15.1670000000      2
     4117  4126  4127  4128    1  0.0000000000      0.0000000000       2
     4117  4126  4127  4129    1  0.0000000000      0.0000000000       2
     4117  4126  4127  4130    1  0.0000000000      0.0000000000       2
     4127  4126  4125  4124    1  180.0000000000    15.1670000000      2
     4117  4126  4125  2436    1  180.0000000000    15.1670000000      2
     4127  4126  4125  2436    1  180.0000000000    15.1670000000      2
     4115  4117  4118  4119    1  180.0000000000    15.1670000000      2
     4115  4117  4118  4131    1  180.0000000000    15.1670000000      2
     4126  4117  4118  4119    1  180.0000000000    15.1670000000      2
     4126  4117  4118  4131    1  180.0000000000    15.1670000000      2
     4115  4117  4126  4127    1  180.0000000000    15.1670000000      2
     4118  4117  4126  4125    1  180.0000000000    15.1670000000      2
     4118  4117  4126  4127    1  180.0000000000    15.1670000000      2
     4117  4118  4119  4120    1  180.0000000000    15.1670000000      2
     4117  4118  4119  4124    1  180.0000000000    15.1670000000      2
     4131  4118  4119  4120    1  180.0000000000    15.1670000000      2
     4117  4118  4131  4115    1  180.0000000000    1.0041600000       2
     4117  4118  4131  4132    1  0.0000000000      0.0000000000       1
     4117  4118  4131  4133    1  180.0000000000    1.0041600000       2
     4119  4118  4131  4115    1  180.0000000000    1.0041600000       2
     4119  4118  4131  4132    1  0.0000000000      0.0000000000       1
     4119  4118  4131  4133    1  180.0000000000    1.0041600000       2
     4729  4759  4760  4725    1  180.0000000000    15.1670000000      2
     4729  4759  4760  4761    1  180.0000000000    15.1670000000      2
     4732  4759  4760  4725    1  180.0000000000    15.1670000000      2
     4732  4759  4760  4761    1  180.0000000000    15.1670000000      2
     4115  4131  4133  4109    1  0.0000000000      2.1756800000       3
     4115  4131  4133  4134    1  0.0000000000      0.5439200000       3
     4115  4131  4133  4135    1  0.0000000000      2.1756800000       3
     4118  4131  4133  4109    1  0.0000000000      0.6508444444       3
     4118  4131  4133  4134    1  0.0000000000      0.6508444444       3
     4118  4131  4133  4135    1  0.0000000000      0.6508444444       3
     4132  4131  4133  4109    1  0.0000000000      0.5439200000       3
     4132  4131  4133  4134    1  0.0000000000      0.5020800000       3
     4132  4131  4133  4135    1  0.0000000000      0.5439200000       3
     2430  2440  2442  2434    1  0.0000000000      0.6508444444       3
     2430  2440  2442  2443    1  0.0000000000      0.6508444444       3
     2430  2440  2442  2444    1  0.0000000000      0.6508444444       3
     2438  2440  2442  2443    1  0.0000000000      0.6508444444       3
     2438  2440  2442  2444    1  0.0000000000      0.6508444444       3
     2441  2440  2442  2434    1  0.0000000000      0.5439200000       3
     2441  2440  2442  2443    1  0.0000000000      0.5020800000       3
     2441  2440  2442  2444    1  0.0000000000      0.5020800000       3
     2438  2440  2430  2429    1  0.0000000000      0.6508444444       3
     2438  2440  2430  2431    1  0.0000000000      0.5439200000       3
     2438  2440  2430  2432    1  0.0000000000      2.1756800000       3
     2430  2440  2438  2436    1  0.0000000000      2.1756800000       3
     2441  2440  2438  2436    1  0.0000000000      0.5439200000       3
     2442  2440  2438  2436    1  0.0000000000      2.1756800000       3
     2430  2440  2438  2439    1  0.0000000000      0.5439200000       3
     2441  2440  2438  2439    1  0.0000000000      0.5020800000       3
     2442  2440  2438  2439    1  0.0000000000      0.5439200000       3
     2441  2440  2438  4124    1  0.0000000000      0.6508444444       3
     2442  2440  2438  4124    1  0.0000000000      0.6508444444       3
     2430  2440  2438  4124    1  0.0000000000      0.6508444444       3
     4119  4124  4125  4126    1  180.0000000000    15.1670000000      2
     4119  4124  4125  2436    1  180.0000000000    15.1670000000      2
     4125  4124  2438  2436    1  180.0000000000    1.0041600000       2
     4119  4124  2438  2436    1  180.0000000000    1.0041600000       2
     4125  4124  2438  2439    1  0.0000000000      0.0000000000       1
     4119  4124  2438  2439    1  0.0000000000      0.0000000000       1
     4125  4124  2438  2440    1  180.0000000000    1.0041600000       2
     4119  4124  2438  2440    1  180.0000000000    1.0041600000       2
     4113  4115  4117  4118    1  180.0000000000    1.0041600000       2
     4113  4115  4117  4126    1  180.0000000000    1.0041600000       2
     4116  4115  4117  4118    1  0.0000000000      0.0000000000       1
     4116  4115  4117  4126    1  0.0000000000      0.0000000000       1
     4131  4115  4117  4118    1  180.0000000000    1.0041600000       2
     4131  4115  4117  4126    1  180.0000000000    1.0041600000       2
     4113  4115  4131  4118    1  0.0000000000      0.6508444444       3
     4113  4115  4131  4132    1  0.0000000000      0.6508444444       3
     4113  4115  4131  4133    1  0.0000000000      0.6508444444       3
     4116  4115  4131  4118    1  0.0000000000      0.6508444444       3
     4116  4115  4131  4132    1  0.0000000000      0.6508444444       3
     4116  4115  4131  4133    1  0.0000000000      0.6508444444       3
     4117  4115  4131  4118    1  0.0000000000      0.6508444444       3
     4117  4115  4131  4132    1  0.0000000000      0.6508444444       3
     4117  4115  4131  4133    1  0.0000000000      0.6508444444       3
     4109  4133  4135  4113    1  0.0000000000      0.6508444444       3
     4109  4133  4135  4136    1  0.0000000000      0.6508444444       3
     4109  4133  4135  4137    1  0.0000000000      0.6508444444       3
     4131  4133  4135  4113    1  0.0000000000      0.6508444444       3
     4131  4133  4135  4136    1  0.0000000000      0.6508444444       3
     4131  4133  4135  4137    1  0.0000000000      0.6508444444       3
     4134  4133  4135  4113    1  0.0000000000      0.5439200000       3
     4134  4133  4135  4136    1  0.0000000000      0.5020800000       3
     4134  4133  4135  4137    1  0.0000000000      0.5020800000       3
     947   946   945   950     1  0.0000000000      0.0000000000       2
     948   946   945   950     1  0.0000000000      0.0000000000       2
     949   946   945   950     1  0.0000000000      0.0000000000       2
     899   898   902   903     1  0.0000000000      0.5439200000       3
     899   898   902   907     1  0.0000000000      0.6508444444       3
     899   898   902   931     1  0.0000000000      0.6508444444       3
     900   898   902   903     1  0.0000000000      0.5439200000       3
     900   898   902   907     1  0.0000000000      0.6508444444       3
     900   898   902   931     1  0.0000000000      0.6508444444       3
     901   898   902   903     1  0.0000000000      0.5439200000       3
     901   898   902   907     1  0.0000000000      0.6508444444       3
     901   898   902   931     1  0.0000000000      0.6508444444       3
     2440  2438  2436  2437    1  0.0000000000      0.6508444444       3
     2440  2438  2436  4125    1  0.0000000000      0.6508444444       3
     4124  2438  2436  2437    1  0.0000000000      0.6508444444       3
     4118  4119  4120  4121    1  0.0000000000      0.0000000000       2
     4118  4119  4120  4122    1  0.0000000000      0.0000000000       2
     4118  4119  4120  4123    1  0.0000000000      0.0000000000       2
     4118  4119  4124  4125    1  180.0000000000    15.1670000000      2
     4120  4119  4124  4125    1  180.0000000000    15.1670000000      2
     4124  4119  4118  4131    1  180.0000000000    15.1670000000      2
     4120  4119  4124  2438    1  180.0000000000    15.1670000000      2
     4118  4119  4124  2438    1  180.0000000000    15.1670000000      2
     2425  2426  2427  2428    1  180.0000000000    15.1670000000      2
     2425  2426  2427  2429    1  180.0000000000    15.1670000000      2
     2448  2426  2427  2428    1  180.0000000000    15.1670000000      2
     2448  2426  2427  2429    1  180.0000000000    15.1670000000      2
     2425  2426  2448  2449    1  180.0000000000    4.1840000000       2
     2425  2426  2448  2483    1  180.0000000000    4.1840000000       2
     2427  2426  2448  2449    1  180.0000000000    4.1840000000       2
     2427  2426  2448  2483    1  180.0000000000    4.1840000000       2
     2429  2430  2432  2433    1  0.0000000000      0.6508444444       3
     2429  2430  2432  2434    1  0.0000000000      0.6508444444       3
     2429  2430  2432  2445    1  0.0000000000      0.6508444444       3
     2431  2430  2432  2433    1  0.0000000000      0.6508444444       3
     2431  2430  2432  2434    1  0.0000000000      0.6508444444       3
     2431  2430  2432  2445    1  0.0000000000      0.6508444444       3
     2440  2430  2432  2433    1  0.0000000000      0.6508444444       3
     2440  2430  2432  2434    1  0.0000000000      0.6508444444       3
     2440  2430  2432  2445    1  0.0000000000      0.6508444444       3
     2429  2430  2440  2441    1  0.0000000000      0.6508444444       3
     2429  2430  2440  2442    1  0.0000000000      0.6508444444       3
     2431  2430  2440  2441    1  0.0000000000      0.5020800000       3
     2431  2430  2440  2442    1  0.0000000000      0.5439200000       3
     2432  2430  2440  2441    1  0.0000000000      0.5439200000       3
     2432  2430  2440  2442    1  0.0000000000      2.1756800000       3
     2427  2429  2430  2431    1  0.0000000000      0.0000000000       1
     2427  2429  2430  2432    1  180.0000000000    1.0041600000       2
     2427  2429  2430  2440    1  180.0000000000    1.0041600000       2
     2445  2429  2430  2431    1  0.0000000000      0.0000000000       1
     2445  2429  2430  2432    1  180.0000000000    1.0041600000       2
     2445  2429  2430  2440    1  180.0000000000    1.0041600000       2
     2427  2429  2445  2432    1  180.0000000000    15.1670000000      2
     2427  2429  2445  2446    1  180.0000000000    15.1670000000      2
     2430  2429  2445  2432    1  180.0000000000    15.1670000000      2
     2430  2429  2445  2446    1  180.0000000000    15.1670000000      2
     2420  2425  2426  2427    1  180.0000000000    15.1670000000      2
     2420  2425  2426  2448    1  180.0000000000    15.1670000000      2
     2446  2425  2426  2427    1  180.0000000000    15.1670000000      2
     2446  2425  2426  2448    1  180.0000000000    15.1670000000      2
     2420  2425  2446  2445    1  180.0000000000    15.1670000000      2
     2420  2425  2446  2447    1  180.0000000000    15.1670000000      2
     2426  2425  2446  2445    1  180.0000000000    15.1670000000      2
     2426  2425  2446  2447    1  180.0000000000    15.1670000000      2
     4109  4111  4113  4114    1  0.0000000000      0.5439200000       3
     4109  4111  4113  4115    1  0.0000000000      2.1756800000       3
     4109  4111  4113  4135    1  0.0000000000      2.1756800000       3
     4112  4111  4113  4114    1  0.0000000000      0.5020800000       3
     4112  4111  4113  4115    1  0.0000000000      0.5439200000       3
     4112  4111  4113  4135    1  0.0000000000      0.5439200000       3
     4138  4111  4113  4114    1  0.0000000000      0.6508444444       3
     4138  4111  4113  4115    1  0.0000000000      0.6508444444       3
     4138  4111  4113  4135    1  0.0000000000      0.6508444444       3
     4109  4111  4138  4108    1  180.0000000000    1.0041600000       2
     4109  4111  4138  4139    1  180.0000000000    1.0041600000       2
     4112  4111  4138  4108    1  0.0000000000      0.0000000000       1
     4112  4111  4138  4139    1  0.0000000000      0.0000000000       1
     4113  4111  4138  4108    1  180.0000000000    1.0041600000       2
     4113  4111  4138  4139    1  180.0000000000    1.0041600000       2
     4111  4113  4115  4116    1  0.0000000000      0.5439200000       3
     4111  4113  4115  4117    1  0.0000000000      0.6508444444       3
     4111  4113  4115  4131    1  0.0000000000      2.1756800000       3
     4114  4113  4115  4116    1  0.0000000000      0.5020800000       3
     4114  4113  4115  4117    1  0.0000000000      0.6508444444       3
     4114  4113  4115  4131    1  0.0000000000      0.5439200000       3
     4135  4113  4115  4116    1  0.0000000000      0.5439200000       3
     4135  4113  4115  4117    1  0.0000000000      0.6508444444       3
     4135  4113  4115  4131    1  0.0000000000      2.1756800000       3
     4111  4113  4135  4133    1  0.0000000000      0.6508444444       3
     4111  4113  4135  4136    1  0.0000000000      0.6508444444       3
     4111  4113  4135  4137    1  0.0000000000      0.6508444444       3
     4114  4113  4135  4133    1  0.0000000000      0.5439200000       3
     4114  4113  4135  4136    1  0.0000000000      0.5020800000       3
     4114  4113  4135  4137    1  0.0000000000      0.5020800000       3
     4115  4113  4135  4133    1  0.0000000000      0.6508444444       3
     4115  4113  4135  4136    1  0.0000000000      0.6508444444       3
     4115  4113  4135  4137    1  0.0000000000      0.6508444444       3
     2416  2420  2421  2422    1  0.0000000000      0.5439200000       3
     2416  2420  2421  2423    1  0.0000000000      0.5439200000       3
     2416  2420  2421  2424    1  0.0000000000      0.5439200000       3
     2425  2420  2421  2422    1  0.0000000000      0.6508444444       3
     2425  2420  2421  2423    1  0.0000000000      0.6508444444       3
     2425  2420  2421  2424    1  0.0000000000      0.6508444444       3
     2449  2420  2421  2422    1  0.0000000000      0.6508444444       3
     2449  2420  2421  2423    1  0.0000000000      0.6508444444       3
     2449  2420  2421  2424    1  0.0000000000      0.6508444444       3
     2416  2420  2425  2426    1  0.0000000000      0.0000000000       2
     2416  2420  2425  2446    1  180.0000000000    1.0041600000       2
     2421  2420  2425  2426    1  0.0000000000      0.0000000000       2
     2421  2420  2425  2446    1  180.0000000000    1.0041600000       2
     2449  2420  2425  2426    1  0.0000000000      0.0000000000       2
     2449  2420  2425  2446    1  180.0000000000    0.0000000000       2
     2416  2420  2449  2448    1  0.0000000000      0.0000000000       2
     2416  2420  2449  2450    1  180.0000000000    1.0041600000       2
     2421  2420  2449  2448    1  0.0000000000      0.0000000000       2
     2421  2420  2449  2450    1  180.0000000000    1.0041600000       2
     2425  2420  2449  2448    1  0.0000000000      0.0000000000       2
     2425  2420  2449  2450    1  180.0000000000    0.0000000000       2
     2420  2449  2450  2451    1  180.0000000000    15.1670000000      2
     2420  2449  2450  2452    1  180.0000000000    15.1670000000      2
     2448  2449  2450  2451    1  180.0000000000    15.1670000000      2
     2448  2449  2450  2452    1  180.0000000000    15.1670000000      2
     4736  4738  4739  4740    1  180.0000000000    15.1670000000      2
     4736  4738  4739  4752    1  180.0000000000    15.1670000000      2
     4747  4738  4739  4740    1  180.0000000000    15.1670000000      2
     4747  4738  4739  4752    1  180.0000000000    15.1670000000      2
     4736  4738  4747  4748    1  180.0000000000    15.1670000000      2
     4739  4738  4747  4746    1  180.0000000000    15.1670000000      2
     4739  4738  4747  4748    1  180.0000000000    15.1670000000      2
     2426  2448  2449  2420    1  180.0000000000    15.1670000000      2
     2426  2448  2449  2450    1  180.0000000000    15.1670000000      2
     2483  2448  2449  2420    1  180.0000000000    15.1670000000      2
     2483  2448  2449  2450    1  180.0000000000    15.1670000000      2
     2426  2448  2483  2482    1  180.0000000000    15.1670000000      2
     2426  2448  2483  2484    1  180.0000000000    15.1670000000      2
     2449  2448  2483  2482    1  180.0000000000    15.1670000000      2
     2449  2448  2483  2484    1  180.0000000000    15.1670000000      2
     4711  4713  4715  4716    1  0.0000000000      0.6508444444       3
     4711  4713  4715  4717    1  0.0000000000      0.6508444444       3
     4714  4713  4715  4716    1  0.0000000000      0.6508444444       3
     4711  4713  4715  6746    1  0.0000000000      0.6508444444       3
     6747  4713  4715  4716    1  0.0000000000      0.6508444444       3
     5875  5876  5877  5878    1  180.0000000000    15.1670000000      2
     5875  5876  5877  5879    1  180.0000000000    15.1670000000      2
     5898  5876  5877  5878    1  180.0000000000    15.1670000000      2
     5898  5876  5877  5879    1  180.0000000000    15.1670000000      2
     5875  5876  5898  5899    1  180.0000000000    4.1840000000       2
     5875  5876  5898  5933    1  180.0000000000    4.1840000000       2
     5877  5876  5898  5899    1  180.0000000000    4.1840000000       2
     5877  5876  5898  5933    1  180.0000000000    4.1840000000       2
     3658  3662  3663  3664    1  0.0000000000      0.5439200000       3
     3658  3662  3663  3665    1  0.0000000000      0.5439200000       3
     3658  3662  3663  3666    1  0.0000000000      0.5439200000       3
     3667  3662  3663  3664    1  0.0000000000      0.6508444444       3
     3667  3662  3663  3665    1  0.0000000000      0.6508444444       3
     3667  3662  3663  3666    1  0.0000000000      0.6508444444       3
     3691  3662  3663  3664    1  0.0000000000      0.6508444444       3
     3691  3662  3663  3665    1  0.0000000000      0.6508444444       3
     3691  3662  3663  3666    1  0.0000000000      0.6508444444       3
     3658  3662  3667  3668    1  0.0000000000      0.0000000000       2
     3658  3662  3667  3688    1  180.0000000000    1.0041600000       2
     3663  3662  3667  3668    1  0.0000000000      0.0000000000       2
     3663  3662  3667  3688    1  180.0000000000    1.0041600000       2
     3691  3662  3667  3668    1  0.0000000000      0.0000000000       2
     3691  3662  3667  3688    1  180.0000000000    0.0000000000       2
     3658  3662  3691  3690    1  0.0000000000      0.0000000000       2
     3658  3662  3691  3692    1  180.0000000000    1.0041600000       2
     3663  3662  3691  3690    1  0.0000000000      0.0000000000       2
     3663  3662  3691  3692    1  180.0000000000    1.0041600000       2
     3667  3662  3691  3690    1  0.0000000000      0.0000000000       2
     3667  3662  3691  3692    1  180.0000000000    0.0000000000       2
     4706  4707  4709  4710    1  0.0000000000      0.6508444444       3
     4706  4707  4709  4711    1  0.0000000000      0.6508444444       3
     4706  4707  4709  4722    1  0.0000000000      0.6508444444       3
     4708  4707  4709  4710    1  0.0000000000      0.6508444444       3
     4708  4707  4709  4711    1  0.0000000000      0.6508444444       3
     4708  4707  4709  4722    1  0.0000000000      0.6508444444       3
     4717  4707  4709  4710    1  0.0000000000      0.6508444444       3
     4717  4707  4709  4711    1  0.0000000000      0.6508444444       3
     4717  4707  4709  4722    1  0.0000000000      0.6508444444       3
     4706  4707  4717  4718    1  0.0000000000      0.6508444444       3
     4706  4707  4717  4719    1  0.0000000000      0.6508444444       3
     4708  4707  4717  4718    1  0.0000000000      0.5020800000       3
     4708  4707  4717  4719    1  0.0000000000      0.5439200000       3
     4709  4707  4717  4718    1  0.0000000000      0.5439200000       3
     4709  4707  4717  4719    1  0.0000000000      2.1756800000       3
     3682  3684  3676  3678    1  0.0000000000      0.6508444444       3
     3676  3684  3682  3680    1  0.0000000000      0.6508444444       3
     6737  6739  6740  6741    1  180.0000000000    15.1670000000      2
     6737  6739  6740  6753    1  180.0000000000    15.1670000000      2
     6748  6739  6740  6741    1  180.0000000000    15.1670000000      2
     6748  6739  6740  6753    1  180.0000000000    15.1670000000      2
     6737  6739  6748  6749    1  180.0000000000    15.1670000000      2
     6740  6739  6748  6747    1  180.0000000000    15.1670000000      2
     6740  6739  6748  6749    1  180.0000000000    15.1670000000      2
     5876  5877  5879  5880    1  180.0000000000    15.1670000000      2
     5876  5877  5879  5895    1  180.0000000000    15.1670000000      2
     5878  5877  5879  5880    1  180.0000000000    15.1670000000      2
     5878  5877  5879  5895    1  180.0000000000    15.1670000000      2
     3671  3672  3674  3675    1  0.0000000000      0.6508444444       3
     3671  3672  3674  3676    1  0.0000000000      0.6508444444       3
     3671  3672  3674  3687    1  0.0000000000      0.6508444444       3
     3673  3672  3674  3675    1  0.0000000000      0.6508444444       3
     3673  3672  3674  3676    1  0.0000000000      0.6508444444       3
     3673  3672  3674  3687    1  0.0000000000      0.6508444444       3
     3682  3672  3674  3675    1  0.0000000000      0.6508444444       3
     3682  3672  3674  3676    1  0.0000000000      0.6508444444       3
     3682  3672  3674  3687    1  0.0000000000      0.6508444444       3
     3671  3672  3682  3683    1  0.0000000000      0.6508444444       3
     3671  3672  3682  3684    1  0.0000000000      0.6508444444       3
     3673  3672  3682  3683    1  0.0000000000      0.5020800000       3
     3673  3672  3682  3684    1  0.0000000000      0.5439200000       3
     3674  3672  3682  3683    1  0.0000000000      0.5439200000       3
     3674  3672  3682  3684    1  0.0000000000      2.1756800000       3
     6746  6747  6748  6739    1  180.0000000000    15.1670000000      2
     6748  6747  6746  4715    1  180.0000000000    15.1670000000      2
     6746  6747  4713  4714    1  0.0000000000      0.0000000000       1
     6748  6747  4713  4714    1  0.0000000000      0.0000000000       1
     6746  6747  4713  4715    1  180.0000000000    1.0041600000       2
     6748  6747  4713  4715    1  180.0000000000    1.0041600000       2
     6746  6747  4713  4711    1  180.0000000000    1.0041600000       2
     6748  6747  4713  4711    1  180.0000000000    1.0041600000       2
     4703  4704  4706  4707    1  180.0000000000    15.1670000000      2
     4703  4704  4706  4722    1  180.0000000000    15.1670000000      2
     4705  4704  4706  4707    1  180.0000000000    15.1670000000      2
     4705  4704  4706  4722    1  180.0000000000    15.1670000000      2
     3671  3687  3688  3667    1  180.0000000000    15.1670000000      2
     3671  3687  3688  3689    1  180.0000000000    15.1670000000      2
     3674  3687  3688  3667    1  180.0000000000    15.1670000000      2
     3674  3687  3688  3689    1  180.0000000000    15.1670000000      2
     3669  3671  3672  3673    1  0.0000000000      0.0000000000       1
     3669  3671  3672  3674    1  180.0000000000    1.0041600000       2
     3669  3671  3672  3682    1  180.0000000000    1.0041600000       2
     3687  3671  3672  3673    1  0.0000000000      0.0000000000       1
     3687  3671  3672  3674    1  180.0000000000    1.0041600000       2
     3687  3671  3672  3682    1  180.0000000000    1.0041600000       2
     3669  3671  3687  3674    1  180.0000000000    15.1670000000      2
     3669  3671  3687  3688    1  180.0000000000    15.1670000000      2
     3672  3671  3687  3674    1  180.0000000000    15.1670000000      2
     3672  3671  3687  3688    1  180.0000000000    15.1670000000      2
     6739  6740  6741  6742    1  180.0000000000    15.1670000000      2
     6739  6740  6741  6746    1  180.0000000000    15.1670000000      2
     6753  6740  6741  6742    1  180.0000000000    15.1670000000      2
     6739  6740  6753  6737    1  180.0000000000    1.0041600000       2
     6739  6740  6753  6754    1  0.0000000000      0.0000000000       1
     6739  6740  6753  6755    1  180.0000000000    1.0041600000       2
     6741  6740  6753  6737    1  180.0000000000    1.0041600000       2
     6741  6740  6753  6754    1  0.0000000000      0.0000000000       1
     6741  6740  6753  6755    1  180.0000000000    1.0041600000       2
     5948  5949  5951  5952    1  0.0000000000      0.6508444444       3
     5948  5949  5951  5953    1  0.0000000000      0.6508444444       3
     5948  5949  5951  5964    1  0.0000000000      0.6508444444       3
     5950  5949  5951  5952    1  0.0000000000      0.6508444444       3
     5950  5949  5951  5953    1  0.0000000000      0.6508444444       3
     5950  5949  5951  5964    1  0.0000000000      0.6508444444       3
     5959  5949  5951  5952    1  0.0000000000      0.6508444444       3
     5959  5949  5951  5953    1  0.0000000000      0.6508444444       3
     5959  5949  5951  5964    1  0.0000000000      0.6508444444       3
     5948  5949  5959  5960    1  0.0000000000      0.6508444444       3
     5948  5949  5959  5961    1  0.0000000000      0.6508444444       3
     5950  5949  5959  5960    1  0.0000000000      0.5020800000       3
     5950  5949  5959  5961    1  0.0000000000      0.5439200000       3
     5951  5949  5959  5960    1  0.0000000000      0.5439200000       3
     5951  5949  5959  5961    1  0.0000000000      2.1756800000       3
     3668  3690  3691  3662    1  180.0000000000    15.1670000000      2
     3668  3690  3691  3692    1  180.0000000000    15.1670000000      2
     3725  3690  3691  3662    1  180.0000000000    15.1670000000      2
     3725  3690  3691  3692    1  180.0000000000    15.1670000000      2
     3668  3690  3725  3724    1  180.0000000000    15.1670000000      2
     3668  3690  3725  3726    1  180.0000000000    15.1670000000      2
     3691  3690  3725  3724    1  180.0000000000    15.1670000000      2
     3691  3690  3725  3726    1  180.0000000000    15.1670000000      2
     4704  4706  4707  4708    1  0.0000000000      0.0000000000       1
     4704  4706  4707  4709    1  180.0000000000    1.0041600000       2
     4704  4706  4707  4717    1  180.0000000000    1.0041600000       2
     4722  4706  4707  4708    1  0.0000000000      0.0000000000       1
     4722  4706  4707  4709    1  180.0000000000    1.0041600000       2
     4722  4706  4707  4717    1  180.0000000000    1.0041600000       2
     4704  4706  4722  4709    1  180.0000000000    15.1670000000      2
     4704  4706  4722  4723    1  180.0000000000    15.1670000000      2
     4707  4706  4722  4709    1  180.0000000000    15.1670000000      2
     4707  4706  4722  4723    1  180.0000000000    15.1670000000      2
     4717  4719  4711  4713    1  0.0000000000      0.6508444444       3
     4711  4719  4717  4715    1  0.0000000000      0.6508444444       3
     3676  3678  3680  3681    1  0.0000000000      0.6508444444       3
     3676  3678  3680  3682    1  0.0000000000      0.6508444444       3
     3679  3678  3680  3681    1  0.0000000000      0.6508444444       3
     5435  3678  3680  3681    1  0.0000000000      0.6508444444       3
     5435  3678  3680  5436    1  0.0000000000      0.6508444444       3
     3676  3678  3680  5436    1  0.0000000000      0.6508444444       3
     5877  5879  5880  5881    1  0.0000000000      0.0000000000       1
     5877  5879  5880  5882    1  180.0000000000    1.0041600000       2
     5877  5879  5880  5890    1  180.0000000000    1.0041600000       2
     5895  5879  5880  5881    1  0.0000000000      0.0000000000       1
     5895  5879  5880  5882    1  180.0000000000    1.0041600000       2
     5895  5879  5880  5890    1  180.0000000000    1.0041600000       2
     5877  5879  5895  5882    1  180.0000000000    15.1670000000      2
     5877  5879  5895  5896    1  180.0000000000    15.1670000000      2
     5880  5879  5895  5882    1  180.0000000000    15.1670000000      2
     5880  5879  5895  5896    1  180.0000000000    15.1670000000      2
     6740  6741  6742  6743    1  0.0000000000      0.0000000000       2
     6740  6741  6742  6744    1  0.0000000000      0.0000000000       2
     6740  6741  6742  6745    1  0.0000000000      0.0000000000       2
     6740  6741  6746  6747    1  180.0000000000    15.1670000000      2
     6742  6741  6746  6747    1  180.0000000000    15.1670000000      2
     6746  6741  6740  6753    1  180.0000000000    15.1670000000      2
     6742  6741  6746  4715    1  180.0000000000    15.1670000000      2
     6740  6741  6746  4715    1  180.0000000000    15.1670000000      2
     3678  3676  3674  3672    1  0.0000000000      2.1756800000       3
     3678  3676  3674  3675    1  0.0000000000      0.5439200000       3
     3678  3676  3674  3687    1  0.0000000000      0.6508444444       3
     3674  3676  3678  3679    1  0.0000000000      0.5439200000       3
     3674  3676  3678  3680    1  0.0000000000      2.1756800000       3
     3677  3676  3678  3679    1  0.0000000000      0.5020800000       3
     3677  3676  3678  3680    1  0.0000000000      0.5439200000       3
     3684  3676  3678  3679    1  0.0000000000      0.5439200000       3
     3684  3676  3678  3680    1  0.0000000000      2.1756800000       3
     3674  3676  3684  3682    1  0.0000000000      0.6508444444       3
     3674  3676  3684  3685    1  0.0000000000      0.6508444444       3
     3674  3676  3684  3686    1  0.0000000000      0.6508444444       3
     3677  3676  3684  3682    1  0.0000000000      0.5439200000       3
     3677  3676  3684  3685    1  0.0000000000      0.5020800000       3
     3677  3676  3684  3686    1  0.0000000000      0.5020800000       3
     3678  3676  3684  3685    1  0.0000000000      0.6508444444       3
     3678  3676  3684  3686    1  0.0000000000      0.6508444444       3
     3674  3676  3678  5435    1  0.0000000000      0.6508444444       3
     3677  3676  3678  5435    1  0.0000000000      0.6508444444       3
     3684  3676  3678  5435    1  0.0000000000      0.6508444444       3
     5879  5895  5896  5875    1  180.0000000000    15.1670000000      2
     5879  5895  5896  5897    1  180.0000000000    15.1670000000      2
     5882  5895  5896  5875    1  180.0000000000    15.1670000000      2
     5882  5895  5896  5897    1  180.0000000000    15.1670000000      2
     5867  5866  5870  5871    1  0.0000000000      0.5439200000       3
     5867  5866  5870  5875    1  0.0000000000      0.6508444444       3
     5867  5866  5870  5899    1  0.0000000000      0.6508444444       3
     5868  5866  5870  5871    1  0.0000000000      0.5439200000       3
     5868  5866  5870  5875    1  0.0000000000      0.6508444444       3
     5868  5866  5870  5899    1  0.0000000000      0.6508444444       3
     5869  5866  5870  5871    1  0.0000000000      0.5439200000       3
     5869  5866  5870  5875    1  0.0000000000      0.6508444444       3
     5869  5866  5870  5899    1  0.0000000000      0.6508444444       3
     3668  3669  3671  3672    1  180.0000000000    15.1670000000      2
     3668  3669  3671  3687    1  180.0000000000    15.1670000000      2
     3670  3669  3671  3672    1  180.0000000000    15.1670000000      2
     3670  3669  3671  3687    1  180.0000000000    15.1670000000      2
     6741  6746  6747  6748    1  180.0000000000    15.1670000000      2
     4715  6746  6747  4713    1  180.0000000000    15.1670000000      2
     6747  6746  4715  4713    1  180.0000000000    1.0041600000       2
     6741  6746  4715  4713    1  180.0000000000    1.0041600000       2
     6747  6746  4715  4716    1  0.0000000000      0.0000000000       1
     6741  6746  4715  4716    1  0.0000000000      0.0000000000       1
     6747  6746  4715  4717    1  180.0000000000    1.0041600000       2
     6741  6746  4715  4717    1  180.0000000000    1.0041600000       2
     6741  6746  6747  4713    1  180.0000000000    15.1670000000      2
     4707  4717  4715  4713    1  0.0000000000      2.1756800000       3
     4718  4717  4715  4713    1  0.0000000000      0.5439200000       3
     4719  4717  4715  4713    1  0.0000000000      2.1756800000       3
     4707  4717  4715  4716    1  0.0000000000      0.5439200000       3
     4718  4717  4715  4716    1  0.0000000000      0.5020800000       3
     4719  4717  4715  4716    1  0.0000000000      0.5439200000       3
     4715  4717  4707  4706    1  0.0000000000      0.6508444444       3
     4715  4717  4707  4708    1  0.0000000000      0.5439200000       3
     4715  4717  4707  4709    1  0.0000000000      2.1756800000       3
     4707  4717  4719  4711    1  0.0000000000      0.6508444444       3
     4707  4717  4719  4720    1  0.0000000000      0.6508444444       3
     4707  4717  4719  4721    1  0.0000000000      0.6508444444       3
     4715  4717  4719  4720    1  0.0000000000      0.6508444444       3
     4715  4717  4719  4721    1  0.0000000000      0.6508444444       3
     4718  4717  4719  4711    1  0.0000000000      0.5439200000       3
     4718  4717  4719  4720    1  0.0000000000      0.5020800000       3
     4718  4717  4719  4721    1  0.0000000000      0.5020800000       3
     4707  4717  4715  6746    1  0.0000000000      0.6508444444       3
     4718  4717  4715  6746    1  0.0000000000      0.6508444444       3
     4719  4717  4715  6746    1  0.0000000000      0.6508444444       3
     5866  5870  5871  5872    1  0.0000000000      0.5439200000       3
     5866  5870  5871  5873    1  0.0000000000      0.5439200000       3
     5866  5870  5871  5874    1  0.0000000000      0.5439200000       3
     5875  5870  5871  5872    1  0.0000000000      0.6508444444       3
     5875  5870  5871  5873    1  0.0000000000      0.6508444444       3
     5875  5870  5871  5874    1  0.0000000000      0.6508444444       3
     5899  5870  5871  5872    1  0.0000000000      0.6508444444       3
     5899  5870  5871  5873    1  0.0000000000      0.6508444444       3
     5899  5870  5871  5874    1  0.0000000000      0.6508444444       3
     5866  5870  5875  5876    1  0.0000000000      0.0000000000       2
     5866  5870  5875  5896    1  180.0000000000    1.0041600000       2
     5871  5870  5875  5876    1  0.0000000000      0.0000000000       2
     5871  5870  5875  5896    1  180.0000000000    1.0041600000       2
     5899  5870  5875  5876    1  0.0000000000      0.0000000000       2
     5899  5870  5875  5896    1  180.0000000000    0.0000000000       2
     5866  5870  5899  5898    1  0.0000000000      0.0000000000       2
     5866  5870  5899  5900    1  180.0000000000    1.0041600000       2
     5871  5870  5899  5898    1  0.0000000000      0.0000000000       2
     5871  5870  5899  5900    1  180.0000000000    1.0041600000       2
     5875  5870  5899  5898    1  0.0000000000      0.0000000000       2
     5875  5870  5899  5900    1  180.0000000000    0.0000000000       2
     5870  5875  5876  5877    1  180.0000000000    15.1670000000      2
     5870  5875  5876  5898    1  180.0000000000    15.1670000000      2
     5896  5875  5876  5877    1  180.0000000000    15.1670000000      2
     5896  5875  5876  5898    1  180.0000000000    15.1670000000      2
     5870  5875  5896  5895    1  180.0000000000    15.1670000000      2
     5870  5875  5896  5897    1  180.0000000000    15.1670000000      2
     5876  5875  5896  5895    1  180.0000000000    15.1670000000      2
     5876  5875  5896  5897    1  180.0000000000    15.1670000000      2
     3667  3668  3669  3670    1  180.0000000000    15.1670000000      2
     3667  3668  3669  3671    1  180.0000000000    15.1670000000      2
     3690  3668  3669  3670    1  180.0000000000    15.1670000000      2
     3690  3668  3669  3671    1  180.0000000000    15.1670000000      2
     3667  3668  3690  3691    1  180.0000000000    4.1840000000       2
     3667  3668  3690  3725    1  180.0000000000    4.1840000000       2
     3669  3668  3690  3691    1  180.0000000000    4.1840000000       2
     3669  3668  3690  3725    1  180.0000000000    4.1840000000       2
     6743  6742  6741  6746    1  0.0000000000      0.0000000000       2
     6744  6742  6741  6746    1  0.0000000000      0.0000000000       2
     6745  6742  6741  6746    1  0.0000000000      0.0000000000       2
     3662  3667  3668  3669    1  180.0000000000    15.1670000000      2
     3662  3667  3668  3690    1  180.0000000000    15.1670000000      2
     3688  3667  3668  3669    1  180.0000000000    15.1670000000      2
     3688  3667  3668  3690    1  180.0000000000    15.1670000000      2
     3662  3667  3688  3687    1  180.0000000000    15.1670000000      2
     3662  3667  3688  3689    1  180.0000000000    15.1670000000      2
     3668  3667  3688  3687    1  180.0000000000    15.1670000000      2
     3668  3667  3688  3689    1  180.0000000000    15.1670000000      2
     6739  6748  6749  6750    1  0.0000000000      0.0000000000       2
     6739  6748  6749  6751    1  0.0000000000      0.0000000000       2
     6739  6748  6749  6752    1  0.0000000000      0.0000000000       2
     6747  6748  6739  6737    1  180.0000000000    15.1670000000      2
     6749  6748  6747  6746    1  180.0000000000    15.1670000000      2
     6749  6748  6747  4713    1  180.0000000000    15.1670000000      2
     6739  6748  6747  4713    1  180.0000000000    15.1670000000      2
     3659  3658  3662  3663    1  0.0000000000      0.5439200000       3
     3659  3658  3662  3667    1  0.0000000000      0.6508444444       3
     3659  3658  3662  3691    1  0.0000000000      0.6508444444       3
     3660  3658  3662  3663    1  0.0000000000      0.5439200000       3
     3660  3658  3662  3667    1  0.0000000000      0.6508444444       3
     3660  3658  3662  3691    1  0.0000000000      0.6508444444       3
     3661  3658  3662  3663    1  0.0000000000      0.5439200000       3
     3661  3658  3662  3667    1  0.0000000000      0.6508444444       3
     3661  3658  3662  3691    1  0.0000000000      0.6508444444       3
     4717  4715  4713  4714    1  0.0000000000      0.6508444444       3
     6746  4715  4713  4714    1  0.0000000000      0.6508444444       3
     6746  4715  4713  6747    1  0.0000000000      0.6508444444       3
     4717  4715  4713  6747    1  0.0000000000      0.6508444444       3
     3672  3674  3676  3677    1  0.0000000000      0.5439200000       3
     3672  3674  3676  3684    1  0.0000000000      2.1756800000       3
     3675  3674  3676  3677    1  0.0000000000      0.5020800000       3
     3675  3674  3676  3684    1  0.0000000000      0.5439200000       3
     3687  3674  3676  3677    1  0.0000000000      0.6508444444       3
     3687  3674  3676  3684    1  0.0000000000      0.6508444444       3
     3672  3674  3687  3671    1  180.0000000000    1.0041600000       2
     3672  3674  3687  3688    1  180.0000000000    1.0041600000       2
     3675  3674  3687  3671    1  0.0000000000      0.0000000000       1
     3675  3674  3687  3688    1  0.0000000000      0.0000000000       1
     3676  3674  3687  3671    1  180.0000000000    1.0041600000       2
     3676  3674  3687  3688    1  180.0000000000    1.0041600000       2
     5949  5951  5953  5954    1  0.0000000000      0.5439200000       3
     5949  5951  5953  5961    1  0.0000000000      2.1756800000       3
     5952  5951  5953  5954    1  0.0000000000      0.5020800000       3
     5952  5951  5953  5961    1  0.0000000000      0.5439200000       3
     5964  5951  5953  5954    1  0.0000000000      0.6508444444       3
     5964  5951  5953  5961    1  0.0000000000      0.6508444444       3
     5949  5951  5964  5948    1  180.0000000000    1.0041600000       2
     5949  5951  5964  5965    1  180.0000000000    1.0041600000       2
     5952  5951  5964  5948    1  0.0000000000      0.0000000000       1
     5952  5951  5964  5965    1  0.0000000000      0.0000000000       1
     5953  5951  5964  5948    1  180.0000000000    1.0041600000       2
     5953  5951  5964  5965    1  180.0000000000    1.0041600000       2
     4085  4086  4088  4089    1  0.0000000000      0.6508444444       3
     4085  4086  4088  4090    1  0.0000000000      0.6508444444       3
     4085  4086  4088  4101    1  0.0000000000      0.6508444444       3
     4087  4086  4088  4089    1  0.0000000000      0.6508444444       3
     4087  4086  4088  4090    1  0.0000000000      0.6508444444       3
     4087  4086  4088  4101    1  0.0000000000      0.6508444444       3
     4096  4086  4088  4089    1  0.0000000000      0.6508444444       3
     4096  4086  4088  4090    1  0.0000000000      0.6508444444       3
     4096  4086  4088  4101    1  0.0000000000      0.6508444444       3
     4085  4086  4096  4097    1  0.0000000000      0.6508444444       3
     4085  4086  4096  4098    1  0.0000000000      0.6508444444       3
     4087  4086  4096  4097    1  0.0000000000      0.5020800000       3
     4087  4086  4096  4098    1  0.0000000000      0.5439200000       3
     4088  4086  4096  4097    1  0.0000000000      0.5439200000       3
     4088  4086  4096  4098    1  0.0000000000      2.1756800000       3
     4083  4085  4086  4087    1  0.0000000000      0.0000000000       1
     4083  4085  4086  4088    1  180.0000000000    1.0041600000       2
     4083  4085  4086  4096    1  180.0000000000    1.0041600000       2
     4101  4085  4086  4087    1  0.0000000000      0.0000000000       1
     4101  4085  4086  4088    1  180.0000000000    1.0041600000       2
     4101  4085  4086  4096    1  180.0000000000    1.0041600000       2
     4083  4085  4101  4088    1  180.0000000000    15.1670000000      2
     4083  4085  4101  4102    1  180.0000000000    15.1670000000      2
     4086  4085  4101  4088    1  180.0000000000    15.1670000000      2
     4086  4085  4101  4102    1  180.0000000000    15.1670000000      2
     5915  5914  5913  5918    1  0.0000000000      0.0000000000       2
     5916  5914  5913  5918    1  0.0000000000      0.0000000000       2
     5917  5914  5913  5918    1  0.0000000000      0.0000000000       2
     4090  4092  4094  4095    1  0.0000000000      0.6508444444       3
     4090  4092  4094  4096    1  0.0000000000      0.6508444444       3
     4093  4092  4094  4095    1  0.0000000000      0.6508444444       3
     1986  4092  4094  4095    1  0.0000000000      0.6508444444       3
     1986  4092  4094  1985    1  0.0000000000      0.6508444444       3
     4090  4092  4094  1985    1  0.0000000000      0.6508444444       3
     4086  4088  4090  4091    1  0.0000000000      0.5439200000       3
     4086  4088  4090  4098    1  0.0000000000      2.1756800000       3
     4089  4088  4090  4091    1  0.0000000000      0.5020800000       3
     4089  4088  4090  4098    1  0.0000000000      0.5439200000       3
     4101  4088  4090  4091    1  0.0000000000      0.6508444444       3
     4101  4088  4090  4098    1  0.0000000000      0.6508444444       3
     4086  4088  4101  4085    1  180.0000000000    1.0041600000       2
     4086  4088  4101  4102    1  180.0000000000    1.0041600000       2
     4089  4088  4101  4085    1  0.0000000000      0.0000000000       1
     4089  4088  4101  4102    1  0.0000000000      0.0000000000       1
     4090  4088  4101  4085    1  180.0000000000    1.0041600000       2
     4090  4088  4101  4102    1  180.0000000000    1.0041600000       2
     4094  4096  4086  4085    1  0.0000000000      0.6508444444       3
     4094  4096  4086  4087    1  0.0000000000      0.5439200000       3
     4094  4096  4086  4088    1  0.0000000000      2.1756800000       3
     4086  4096  4094  4092    1  0.0000000000      2.1756800000       3
     4097  4096  4094  4092    1  0.0000000000      0.5439200000       3
     4098  4096  4094  4092    1  0.0000000000      2.1756800000       3
     4086  4096  4094  4095    1  0.0000000000      0.5439200000       3
     4097  4096  4094  4095    1  0.0000000000      0.5020800000       3
     4098  4096  4094  4095    1  0.0000000000      0.5439200000       3
     4086  4096  4098  4090    1  0.0000000000      0.6508444444       3
     4086  4096  4098  4099    1  0.0000000000      0.6508444444       3
     4086  4096  4098  4100    1  0.0000000000      0.6508444444       3
     4094  4096  4098  4099    1  0.0000000000      0.6508444444       3
     4094  4096  4098  4100    1  0.0000000000      0.6508444444       3
     4097  4096  4098  4090    1  0.0000000000      0.5439200000       3
     4097  4096  4098  4099    1  0.0000000000      0.5020800000       3
     4097  4096  4098  4100    1  0.0000000000      0.5020800000       3
     4086  4096  4094  1985    1  0.0000000000      0.6508444444       3
     4097  4096  4094  1985    1  0.0000000000      0.6508444444       3
     4098  4096  4094  1985    1  0.0000000000      0.6508444444       3
     4096  4094  4092  4093    1  0.0000000000      0.6508444444       3
     4096  4094  4092  1986    1  0.0000000000      0.6508444444       3
     1985  4094  4092  4093    1  0.0000000000      0.6508444444       3
     4092  4090  4088  4086    1  0.0000000000      2.1756800000       3
     4092  4090  4088  4089    1  0.0000000000      0.5439200000       3
     4092  4090  4088  4101    1  0.0000000000      0.6508444444       3
     4088  4090  4092  4093    1  0.0000000000      0.5439200000       3
     4088  4090  4092  4094    1  0.0000000000      2.1756800000       3
     4091  4090  4092  4093    1  0.0000000000      0.5020800000       3
     4091  4090  4092  4094    1  0.0000000000      0.5439200000       3
     4098  4090  4092  4093    1  0.0000000000      0.5439200000       3
     4098  4090  4092  4094    1  0.0000000000      2.1756800000       3
     4088  4090  4098  4096    1  0.0000000000      0.6508444444       3
     4088  4090  4098  4099    1  0.0000000000      0.6508444444       3
     4088  4090  4098  4100    1  0.0000000000      0.6508444444       3
     4091  4090  4098  4096    1  0.0000000000      0.5439200000       3
     4091  4090  4098  4099    1  0.0000000000      0.5020800000       3
     4091  4090  4098  4100    1  0.0000000000      0.5020800000       3
     4092  4090  4098  4099    1  0.0000000000      0.6508444444       3
     4092  4090  4098  4100    1  0.0000000000      0.6508444444       3
     4088  4090  4092  1986    1  0.0000000000      0.6508444444       3
     4091  4090  4092  1986    1  0.0000000000      0.6508444444       3
     4098  4090  4092  1986    1  0.0000000000      0.6508444444       3
     1980  1985  1986  1987    1  180.0000000000    15.1670000000      2
     1980  1985  1986  4092    1  180.0000000000    15.1670000000      2
     1986  1985  4094  4092    1  180.0000000000    1.0041600000       2
     1980  1985  4094  4092    1  180.0000000000    1.0041600000       2
     1986  1985  4094  4095    1  0.0000000000      0.0000000000       1
     1980  1985  4094  4095    1  0.0000000000      0.0000000000       1
     1986  1985  4094  4096    1  180.0000000000    1.0041600000       2
     1980  1985  4094  4096    1  180.0000000000    1.0041600000       2
     862   863   865   866     1  180.0000000000    15.1670000000      2
     862   863   865   895     1  180.0000000000    15.1670000000      2
     864   863   865   866     1  180.0000000000    15.1670000000      2
     864   863   865   895     1  180.0000000000    15.1670000000      2
     872   888   890   866     1  0.0000000000      2.1756800000       3
     872   888   890   891     1  0.0000000000      0.5439200000       3
     872   888   890   892     1  0.0000000000      2.1756800000       3
     875   888   890   866     1  0.0000000000      0.6508444444       3
     875   888   890   891     1  0.0000000000      0.6508444444       3
     875   888   890   892     1  0.0000000000      0.6508444444       3
     889   888   890   866     1  0.0000000000      0.5439200000       3
     889   888   890   891     1  0.0000000000      0.5020800000       3
     889   888   890   892     1  0.0000000000      0.5439200000       3
     866   890   892   870     1  0.0000000000      0.6508444444       3
     866   890   892   893     1  0.0000000000      0.6508444444       3
     866   890   892   894     1  0.0000000000      0.6508444444       3
     888   890   892   870     1  0.0000000000      0.6508444444       3
     888   890   892   893     1  0.0000000000      0.6508444444       3
     888   890   892   894     1  0.0000000000      0.6508444444       3
     891   890   892   870     1  0.0000000000      0.5439200000       3
     891   890   892   893     1  0.0000000000      0.5020800000       3
     891   890   892   894     1  0.0000000000      0.5020800000       3
     874   875   876   877     1  180.0000000000    15.1670000000      2
     874   875   876   881     1  180.0000000000    15.1670000000      2
     888   875   876   877     1  180.0000000000    15.1670000000      2
     874   875   888   872     1  180.0000000000    1.0041600000       2
     874   875   888   889     1  0.0000000000      0.0000000000       1
     874   875   888   890     1  180.0000000000    1.0041600000       2
     876   875   888   872     1  180.0000000000    1.0041600000       2
     876   875   888   889     1  0.0000000000      0.0000000000       1
     876   875   888   890     1  180.0000000000    1.0041600000       2
     833   862   863   864     1  180.0000000000    15.1670000000      2
     833   862   863   865     1  180.0000000000    15.1670000000      2
     861   862   863   864     1  180.0000000000    15.1670000000      2
     861   862   863   865     1  180.0000000000    15.1670000000      2
     865   866   868   869     1  0.0000000000      0.6508444444       3
     865   866   868   870     1  0.0000000000      0.6508444444       3
     865   866   868   895     1  0.0000000000      0.6508444444       3
     867   866   868   869     1  0.0000000000      0.6508444444       3
     867   866   868   870     1  0.0000000000      0.6508444444       3
     867   866   868   895     1  0.0000000000      0.6508444444       3
     890   866   868   869     1  0.0000000000      0.6508444444       3
     890   866   868   870     1  0.0000000000      0.6508444444       3
     890   866   868   895     1  0.0000000000      0.6508444444       3
     865   866   890   888     1  0.0000000000      0.6508444444       3
     865   866   890   891     1  0.0000000000      0.6508444444       3
     865   866   890   892     1  0.0000000000      0.6508444444       3
     867   866   890   888     1  0.0000000000      0.5439200000       3
     867   866   890   891     1  0.0000000000      0.5020800000       3
     867   866   890   892     1  0.0000000000      0.5439200000       3
     868   866   890   888     1  0.0000000000      2.1756800000       3
     868   866   890   891     1  0.0000000000      0.5439200000       3
     868   866   890   892     1  0.0000000000      2.1756800000       3
     863   865   866   867     1  0.0000000000      0.0000000000       1
     863   865   866   868     1  180.0000000000    1.0041600000       2
     863   865   866   890     1  180.0000000000    1.0041600000       2
     895   865   866   867     1  0.0000000000      0.0000000000       1
     895   865   866   868     1  180.0000000000    1.0041600000       2
     895   865   866   890     1  180.0000000000    1.0041600000       2
     863   865   895   868     1  180.0000000000    15.1670000000      2
     863   865   895   896     1  180.0000000000    15.1670000000      2
     866   865   895   868     1  180.0000000000    15.1670000000      2
     866   865   895   896     1  180.0000000000    15.1670000000      2
     1979  1980  1981  1982    1  0.0000000000      0.0000000000       2
     1979  1980  1981  1983    1  0.0000000000      0.0000000000       2
     1979  1980  1981  1984    1  0.0000000000      0.0000000000       2
     1979  1980  1985  1986    1  180.0000000000    15.1670000000      2
     1981  1980  1985  1986    1  180.0000000000    15.1670000000      2
     1985  1980  1979  1992    1  180.0000000000    15.1670000000      2
     1981  1980  1985  4094    1  180.0000000000    15.1670000000      2
     1979  1980  1985  4094    1  180.0000000000    15.1670000000      2
     870   872   874   875     1  180.0000000000    1.0041600000       2
     870   872   874   883     1  180.0000000000    1.0041600000       2
     873   872   874   875     1  0.0000000000      0.0000000000       1
     873   872   874   883     1  0.0000000000      0.0000000000       1
     888   872   874   875     1  180.0000000000    1.0041600000       2
     888   872   874   883     1  180.0000000000    1.0041600000       2
     870   872   888   875     1  0.0000000000      0.6508444444       3
     870   872   888   889     1  0.0000000000      0.6508444444       3
     870   872   888   890     1  0.0000000000      0.6508444444       3
     873   872   888   875     1  0.0000000000      0.6508444444       3
     873   872   888   889     1  0.0000000000      0.6508444444       3
     873   872   888   890     1  0.0000000000      0.6508444444       3
     874   872   888   875     1  0.0000000000      0.6508444444       3
     874   872   888   889     1  0.0000000000      0.6508444444       3
     874   872   888   890     1  0.0000000000      0.6508444444       3
     4247  4271  4273  4251    1  0.0000000000      0.6508444444       3
     4247  4271  4273  4274    1  0.0000000000      0.6508444444       3
     4247  4271  4273  4275    1  0.0000000000      0.6508444444       3
     4269  4271  4273  4251    1  0.0000000000      0.6508444444       3
     4269  4271  4273  4274    1  0.0000000000      0.6508444444       3
     4269  4271  4273  4275    1  0.0000000000      0.6508444444       3
     4272  4271  4273  4251    1  0.0000000000      0.5439200000       3
     4272  4271  4273  4274    1  0.0000000000      0.5020800000       3
     4272  4271  4273  4275    1  0.0000000000      0.5020800000       3
     4121  4120  4119  4124    1  0.0000000000      0.0000000000       2
     4122  4120  4119  4124    1  0.0000000000      0.0000000000       2
     4123  4120  4119  4124    1  0.0000000000      0.0000000000       2
     4082  4083  4085  4086    1  180.0000000000    15.1670000000      2
     4082  4083  4085  4101    1  180.0000000000    15.1670000000      2
     4084  4083  4085  4086    1  180.0000000000    15.1670000000      2
     4084  4083  4085  4101    1  180.0000000000    15.1670000000      2
     1985  1986  1987  1978    1  180.0000000000    15.1670000000      2
     4092  1986  1985  4094    1  180.0000000000    15.1670000000      2
     1985  1986  4092  4090    1  180.0000000000    1.0041600000       2
     1987  1986  4092  4090    1  180.0000000000    1.0041600000       2
     1985  1986  4092  4093    1  0.0000000000      0.0000000000       1
     1987  1986  4092  4093    1  0.0000000000      0.0000000000       1
     1985  1986  4092  4094    1  180.0000000000    1.0041600000       2
     1987  1986  4092  4094    1  180.0000000000    1.0041600000       2
     1987  1986  1985  4094    1  180.0000000000    15.1670000000      2
     881   876   875   888     1  180.0000000000    15.1670000000      2
     875   876   877   878     1  0.0000000000      0.0000000000       2
     875   876   877   879     1  0.0000000000      0.0000000000       2
     875   876   877   880     1  0.0000000000      0.0000000000       2
     875   876   881   882     1  180.0000000000    15.1670000000      2
     877   876   881   882     1  180.0000000000    15.1670000000      2
     875   876   881   159     1  180.0000000000    15.1670000000      2
     877   876   881   159     1  180.0000000000    15.1670000000      2
     872   874   875   876     1  180.0000000000    15.1670000000      2
     872   874   875   888     1  180.0000000000    15.1670000000      2
     883   874   875   876     1  180.0000000000    15.1670000000      2
     883   874   875   888     1  180.0000000000    15.1670000000      2
     872   874   883   884     1  180.0000000000    15.1670000000      2
     875   874   883   882     1  180.0000000000    15.1670000000      2
     875   874   883   884     1  180.0000000000    15.1670000000      2
     4246  4247  4249  4250    1  0.0000000000      0.6508444444       3
     4246  4247  4249  4251    1  0.0000000000      0.6508444444       3
     4246  4247  4249  4276    1  0.0000000000      0.6508444444       3
     4248  4247  4249  4250    1  0.0000000000      0.6508444444       3
     4248  4247  4249  4251    1  0.0000000000      0.6508444444       3
     4248  4247  4249  4276    1  0.0000000000      0.6508444444       3
     4271  4247  4249  4250    1  0.0000000000      0.6508444444       3
     4271  4247  4249  4251    1  0.0000000000      0.6508444444       3
     4271  4247  4249  4276    1  0.0000000000      0.6508444444       3
     4246  4247  4271  4269    1  0.0000000000      0.6508444444       3
     4246  4247  4271  4272    1  0.0000000000      0.6508444444       3
     4246  4247  4271  4273    1  0.0000000000      0.6508444444       3
     4248  4247  4271  4269    1  0.0000000000      0.5439200000       3
     4248  4247  4271  4272    1  0.0000000000      0.5020800000       3
     4248  4247  4271  4273    1  0.0000000000      0.5439200000       3
     4249  4247  4271  4269    1  0.0000000000      2.1756800000       3
     4249  4247  4271  4272    1  0.0000000000      0.5439200000       3
     4249  4247  4271  4273    1  0.0000000000      2.1756800000       3
     4096  4098  4090  4092    1  0.0000000000      0.6508444444       3
     4090  4098  4096  4094    1  0.0000000000      0.6508444444       3
     4253  4269  4271  4247    1  0.0000000000      2.1756800000       3
     4253  4269  4271  4272    1  0.0000000000      0.5439200000       3
     4253  4269  4271  4273    1  0.0000000000      2.1756800000       3
     4256  4269  4271  4247    1  0.0000000000      0.6508444444       3
     4256  4269  4271  4272    1  0.0000000000      0.6508444444       3
     4256  4269  4271  4273    1  0.0000000000      0.6508444444       3
     4270  4269  4271  4247    1  0.0000000000      0.5439200000       3
     4270  4269  4271  4272    1  0.0000000000      0.5020800000       3
     4270  4269  4271  4273    1  0.0000000000      0.5439200000       3
     4251  4253  4255  4256    1  180.0000000000    1.0041600000       2
     4251  4253  4255  4264    1  180.0000000000    1.0041600000       2
     4254  4253  4255  4256    1  0.0000000000      0.0000000000       1
     4254  4253  4255  4264    1  0.0000000000      0.0000000000       1
     4269  4253  4255  4256    1  180.0000000000    1.0041600000       2
     4269  4253  4255  4264    1  180.0000000000    1.0041600000       2
     4251  4253  4269  4256    1  0.0000000000      0.6508444444       3
     4251  4253  4269  4270    1  0.0000000000      0.6508444444       3
     4251  4253  4269  4271    1  0.0000000000      0.6508444444       3
     4254  4253  4269  4256    1  0.0000000000      0.6508444444       3
     4254  4253  4269  4270    1  0.0000000000      0.6508444444       3
     4254  4253  4269  4271    1  0.0000000000      0.6508444444       3
     4255  4253  4269  4256    1  0.0000000000      0.6508444444       3
     4255  4253  4269  4270    1  0.0000000000      0.6508444444       3
     4255  4253  4269  4271    1  0.0000000000      0.6508444444       3
     878   877   876   881     1  0.0000000000      0.0000000000       2
     879   877   876   881     1  0.0000000000      0.0000000000       2
     880   877   876   881     1  0.0000000000      0.0000000000       2
     4085  4101  4102  4081    1  180.0000000000    15.1670000000      2
     4085  4101  4102  4103    1  180.0000000000    15.1670000000      2
     4088  4101  4102  4081    1  180.0000000000    15.1670000000      2
     4088  4101  4102  4103    1  180.0000000000    15.1670000000      2
     1989  1988  1987  1986    1  0.0000000000      0.0000000000       2
     1990  1988  1987  1986    1  0.0000000000      0.0000000000       2
     1991  1988  1987  1986    1  0.0000000000      0.0000000000       2
     876   881   882   883     1  180.0000000000    15.1670000000      2
     876   881   882   161     1  180.0000000000    15.1670000000      2
     876   881   159   157     1  180.0000000000    1.0041600000       2
     882   881   159   157     1  180.0000000000    1.0041600000       2
     876   881   159   160     1  0.0000000000      0.0000000000       1
     882   881   159   160     1  0.0000000000      0.0000000000       1
     876   881   159   161     1  180.0000000000    1.0041600000       2
     882   881   159   161     1  180.0000000000    1.0041600000       2
     4249  4251  4253  4254    1  0.0000000000      0.5439200000       3
     4249  4251  4253  4255    1  0.0000000000      0.6508444444       3
     4249  4251  4253  4269    1  0.0000000000      2.1756800000       3
     4252  4251  4253  4254    1  0.0000000000      0.5020800000       3
     4252  4251  4253  4255    1  0.0000000000      0.6508444444       3
     4252  4251  4253  4269    1  0.0000000000      0.5439200000       3
     4273  4251  4253  4254    1  0.0000000000      0.5439200000       3
     4273  4251  4253  4255    1  0.0000000000      0.6508444444       3
     4273  4251  4253  4269    1  0.0000000000      2.1756800000       3
     4249  4251  4273  4271    1  0.0000000000      0.6508444444       3
     4249  4251  4273  4274    1  0.0000000000      0.6508444444       3
     4249  4251  4273  4275    1  0.0000000000      0.6508444444       3
     4252  4251  4273  4271    1  0.0000000000      0.5439200000       3
     4252  4251  4273  4274    1  0.0000000000      0.5020800000       3
     4252  4251  4273  4275    1  0.0000000000      0.5020800000       3
     4253  4251  4273  4271    1  0.0000000000      0.6508444444       3
     4253  4251  4273  4274    1  0.0000000000      0.6508444444       3
     4253  4251  4273  4275    1  0.0000000000      0.6508444444       3
     4108  4109  4111  4112    1  0.0000000000      0.6508444444       3
     4108  4109  4111  4113    1  0.0000000000      0.6508444444       3
     4108  4109  4111  4138    1  0.0000000000      0.6508444444       3
     4110  4109  4111  4112    1  0.0000000000      0.6508444444       3
     4110  4109  4111  4113    1  0.0000000000      0.6508444444       3
     4110  4109  4111  4138    1  0.0000000000      0.6508444444       3
     4133  4109  4111  4112    1  0.0000000000      0.6508444444       3
     4133  4109  4111  4113    1  0.0000000000      0.6508444444       3
     4133  4109  4111  4138    1  0.0000000000      0.6508444444       3
     4108  4109  4133  4131    1  0.0000000000      0.6508444444       3
     4108  4109  4133  4134    1  0.0000000000      0.6508444444       3
     4108  4109  4133  4135    1  0.0000000000      0.6508444444       3
     4110  4109  4133  4131    1  0.0000000000      0.5439200000       3
     4110  4109  4133  4134    1  0.0000000000      0.5020800000       3
     4110  4109  4133  4135    1  0.0000000000      0.5439200000       3
     4111  4109  4133  4131    1  0.0000000000      2.1756800000       3
     4111  4109  4133  4134    1  0.0000000000      0.5439200000       3
     4111  4109  4133  4135    1  0.0000000000      2.1756800000       3
     2426  2427  2429  2430    1  180.0000000000    15.1670000000      2
     2426  2427  2429  2445    1  180.0000000000    15.1670000000      2
     2428  2427  2429  2430    1  180.0000000000    15.1670000000      2
     2428  2427  2429  2445    1  180.0000000000    15.1670000000      2
     5959  5961  5953  5955    1  0.0000000000      0.6508444444       3
     5953  5961  5959  5957    1  0.0000000000      0.6508444444       3
     4322  4324  4325  4326    1  180.0000000000    15.1670000000      2
     4322  4324  4325  4338    1  180.0000000000    15.1670000000      2
     4333  4324  4325  4326    1  180.0000000000    15.1670000000      2
     4333  4324  4325  4338    1  180.0000000000    15.1670000000      2
     4322  4324  4333  4334    1  180.0000000000    15.1670000000      2
     4325  4324  4333  4332    1  180.0000000000    15.1670000000      2
     4325  4324  4333  4334    1  180.0000000000    15.1670000000      2
     3714  3713  3712  3711    1  0.0000000000      0.0000000000       2
     3715  3713  3712  3711    1  0.0000000000      0.0000000000       2
     3716  3713  3712  3711    1  0.0000000000      0.0000000000       2
     5468  5470  5472  5473    1  0.0000000000      0.5439200000       3
     5468  5470  5472  5474    1  0.0000000000      2.1756800000       3
     5471  5470  5472  5473    1  0.0000000000      0.5020800000       3
     5471  5470  5472  5474    1  0.0000000000      0.5439200000       3
     5478  5470  5472  5473    1  0.0000000000      0.5439200000       3
     5478  5470  5472  5474    1  0.0000000000      2.1756800000       3
     5468  5470  5478  5476    1  0.0000000000      0.6508444444       3
     5468  5470  5478  5479    1  0.0000000000      0.6508444444       3
     5468  5470  5478  5480    1  0.0000000000      0.6508444444       3
     5471  5470  5478  5476    1  0.0000000000      0.5439200000       3
     5471  5470  5478  5479    1  0.0000000000      0.5020800000       3
     5471  5470  5478  5480    1  0.0000000000      0.5020800000       3
     5472  5470  5478  5479    1  0.0000000000      0.6508444444       3
     5472  5470  5478  5480    1  0.0000000000      0.6508444444       3
     5472  5470  5468  5466    1  0.0000000000      2.1756800000       3
     5472  5470  5468  5469    1  0.0000000000      0.5439200000       3
     5472  5470  5468  5481    1  0.0000000000      0.6508444444       3
     5471  5470  5472  3711    1  0.0000000000      0.6508444444       3
     5478  5470  5472  3711    1  0.0000000000      0.6508444444       3
     5468  5470  5472  3711    1  0.0000000000      0.6508444444       3
     5911  5912  5913  5914    1  180.0000000000    15.1670000000      2
     5911  5912  5913  5918    1  180.0000000000    15.1670000000      2
     5925  5912  5913  5914    1  180.0000000000    15.1670000000      2
     5911  5912  5925  5909    1  180.0000000000    1.0041600000       2
     5911  5912  5925  5926    1  0.0000000000      0.0000000000       1
     5911  5912  5925  5927    1  180.0000000000    1.0041600000       2
     5913  5912  5925  5909    1  180.0000000000    1.0041600000       2
     5913  5912  5925  5926    1  0.0000000000      0.0000000000       1
     5913  5912  5925  5927    1  180.0000000000    1.0041600000       2
     4262  4257  4256  4269    1  180.0000000000    15.1670000000      2
     4256  4257  4258  4259    1  0.0000000000      0.0000000000       2
     4256  4257  4258  4260    1  0.0000000000      0.0000000000       2
     4256  4257  4258  4261    1  0.0000000000      0.0000000000       2
     4256  4257  4262  4263    1  180.0000000000    15.1670000000      2
     4258  4257  4262  4263    1  180.0000000000    15.1670000000      2
     4256  4257  4262  713     1  180.0000000000    15.1670000000      2
     4258  4257  4262  713     1  180.0000000000    15.1670000000      2
     5903  5905  5907  5908    1  0.0000000000      0.5439200000       3
     5903  5905  5907  5909    1  0.0000000000      2.1756800000       3
     5903  5905  5907  5929    1  0.0000000000      2.1756800000       3
     5906  5905  5907  5908    1  0.0000000000      0.5020800000       3
     5906  5905  5907  5909    1  0.0000000000      0.5439200000       3
     5906  5905  5907  5929    1  0.0000000000      0.5439200000       3
     5932  5905  5907  5908    1  0.0000000000      0.6508444444       3
     5932  5905  5907  5909    1  0.0000000000      0.6508444444       3
     5932  5905  5907  5929    1  0.0000000000      0.6508444444       3
     5903  5905  5932  5902    1  180.0000000000    1.0041600000       2
     5903  5905  5932  5933    1  180.0000000000    1.0041600000       2
     5906  5905  5932  5902    1  0.0000000000      0.0000000000       1
     5906  5905  5932  5933    1  0.0000000000      0.0000000000       1
     5907  5905  5932  5902    1  180.0000000000    1.0041600000       2
     5907  5905  5932  5933    1  180.0000000000    1.0041600000       2
     5903  5927  5929  5907    1  0.0000000000      0.6508444444       3
     5903  5927  5929  5930    1  0.0000000000      0.6508444444       3
     5903  5927  5929  5931    1  0.0000000000      0.6508444444       3
     5925  5927  5929  5907    1  0.0000000000      0.6508444444       3
     5925  5927  5929  5930    1  0.0000000000      0.6508444444       3
     5925  5927  5929  5931    1  0.0000000000      0.6508444444       3
     5928  5927  5929  5907    1  0.0000000000      0.5439200000       3
     5928  5927  5929  5930    1  0.0000000000      0.5020800000       3
     5928  5927  5929  5931    1  0.0000000000      0.5020800000       3
     5919  5920  5911  5909    1  180.0000000000    15.1670000000      2
     5911  5920  5921  5922    1  0.0000000000      0.0000000000       2
     5911  5920  5921  5923    1  0.0000000000      0.0000000000       2
     5911  5920  5921  5924    1  0.0000000000      0.0000000000       2
     5921  5920  5919  5918    1  180.0000000000    15.1670000000      2
     5911  5920  5919  5957    1  180.0000000000    15.1670000000      2
     5921  5920  5919  5957    1  180.0000000000    15.1670000000      2
     5870  5899  5900  5901    1  180.0000000000    15.1670000000      2
     5870  5899  5900  5902    1  180.0000000000    15.1670000000      2
     5898  5899  5900  5901    1  180.0000000000    15.1670000000      2
     5898  5899  5900  5902    1  180.0000000000    15.1670000000      2
     5900  5902  5903  5904    1  0.0000000000      0.0000000000       1
     5900  5902  5903  5905    1  180.0000000000    1.0041600000       2
     5900  5902  5903  5927    1  180.0000000000    1.0041600000       2
     5932  5902  5903  5904    1  0.0000000000      0.0000000000       1
     5932  5902  5903  5905    1  180.0000000000    1.0041600000       2
     5932  5902  5903  5927    1  180.0000000000    1.0041600000       2
     5900  5902  5932  5905    1  180.0000000000    15.1670000000      2
     5900  5902  5932  5933    1  180.0000000000    15.1670000000      2
     5903  5902  5932  5905    1  180.0000000000    15.1670000000      2
     5903  5902  5932  5933    1  180.0000000000    15.1670000000      2
     5909  5925  5927  5903    1  0.0000000000      2.1756800000       3
     5909  5925  5927  5928    1  0.0000000000      0.5439200000       3
     5909  5925  5927  5929    1  0.0000000000      2.1756800000       3
     5912  5925  5927  5903    1  0.0000000000      0.6508444444       3
     5912  5925  5927  5928    1  0.0000000000      0.6508444444       3
     5912  5925  5927  5929    1  0.0000000000      0.6508444444       3
     5926  5925  5927  5903    1  0.0000000000      0.5439200000       3
     5926  5925  5927  5928    1  0.0000000000      0.5020800000       3
     5926  5925  5927  5929    1  0.0000000000      0.5439200000       3
     5918  5919  5920  5911    1  180.0000000000    15.1670000000      2
     5957  5919  5918  5955    1  180.0000000000    15.1670000000      2
     5918  5919  5957  5958    1  0.0000000000      0.0000000000       1
     5920  5919  5957  5958    1  0.0000000000      0.0000000000       1
     5918  5919  5957  5959    1  180.0000000000    1.0041600000       2
     5920  5919  5957  5959    1  180.0000000000    1.0041600000       2
     5918  5919  5957  5955    1  180.0000000000    1.0041600000       2
     5920  5919  5957  5955    1  180.0000000000    1.0041600000       2
     5920  5919  5918  5955    1  180.0000000000    15.1670000000      2
     5876  5898  5899  5870    1  180.0000000000    15.1670000000      2
     5876  5898  5899  5900    1  180.0000000000    15.1670000000      2
     5933  5898  5899  5870    1  180.0000000000    15.1670000000      2
     5933  5898  5899  5900    1  180.0000000000    15.1670000000      2
     5876  5898  5933  5932    1  180.0000000000    15.1670000000      2
     5876  5898  5933  5934    1  180.0000000000    15.1670000000      2
     5899  5898  5933  5932    1  180.0000000000    15.1670000000      2
     5899  5898  5933  5934    1  180.0000000000    15.1670000000      2
     5949  5959  5961  5953    1  0.0000000000      0.6508444444       3
     5949  5959  5961  5962    1  0.0000000000      0.6508444444       3
     5949  5959  5961  5963    1  0.0000000000      0.6508444444       3
     5957  5959  5961  5962    1  0.0000000000      0.6508444444       3
     5957  5959  5961  5963    1  0.0000000000      0.6508444444       3
     5960  5959  5961  5953    1  0.0000000000      0.5439200000       3
     5960  5959  5961  5962    1  0.0000000000      0.5020800000       3
     5960  5959  5961  5963    1  0.0000000000      0.5020800000       3
     5949  5959  5957  5955    1  0.0000000000      2.1756800000       3
     5960  5959  5957  5955    1  0.0000000000      0.5439200000       3
     5961  5959  5957  5955    1  0.0000000000      2.1756800000       3
     5949  5959  5957  5958    1  0.0000000000      0.5439200000       3
     5960  5959  5957  5958    1  0.0000000000      0.5020800000       3
     5961  5959  5957  5958    1  0.0000000000      0.5439200000       3
     5957  5959  5949  5948    1  0.0000000000      0.6508444444       3
     5957  5959  5949  5950    1  0.0000000000      0.5439200000       3
     5957  5959  5949  5951    1  0.0000000000      2.1756800000       3
     5960  5959  5957  5919    1  0.0000000000      0.6508444444       3
     5961  5959  5957  5919    1  0.0000000000      0.6508444444       3
     5949  5959  5957  5919    1  0.0000000000      0.6508444444       3
     4993  4995  4987  4989    1  0.0000000000      0.6508444444       3
     4987  4995  4993  4991    1  0.0000000000      0.6508444444       3
     4244  4246  4247  4248    1  0.0000000000      0.0000000000       1
     4244  4246  4247  4249    1  180.0000000000    1.0041600000       2
     4244  4246  4247  4271    1  180.0000000000    1.0041600000       2
     4276  4246  4247  4248    1  0.0000000000      0.0000000000       1
     4276  4246  4247  4249    1  180.0000000000    1.0041600000       2
     4276  4246  4247  4271    1  180.0000000000    1.0041600000       2
     4244  4246  4276  4249    1  180.0000000000    15.1670000000      2
     4244  4246  4276  4277    1  180.0000000000    15.1670000000      2
     4247  4246  4276  4249    1  180.0000000000    15.1670000000      2
     4247  4246  4276  4277    1  180.0000000000    15.1670000000      2
     1982  1981  1980  1985    1  0.0000000000      0.0000000000       2
     1983  1981  1980  1985    1  0.0000000000      0.0000000000       2
     1984  1981  1980  1985    1  0.0000000000      0.0000000000       2
     5959  5957  5955  5956    1  0.0000000000      0.6508444444       3
     5919  5957  5955  5956    1  0.0000000000      0.6508444444       3
     5919  5957  5955  5918    1  0.0000000000      0.6508444444       3
     5959  5957  5955  5918    1  0.0000000000      0.6508444444       3
     5909  5911  5912  5913    1  180.0000000000    15.1670000000      2
     5909  5911  5912  5925    1  180.0000000000    15.1670000000      2
     5920  5911  5912  5913    1  180.0000000000    15.1670000000      2
     5920  5911  5912  5925    1  180.0000000000    15.1670000000      2
     5909  5911  5920  5921    1  180.0000000000    15.1670000000      2
     5912  5911  5920  5919    1  180.0000000000    15.1670000000      2
     5912  5911  5920  5921    1  180.0000000000    15.1670000000      2
     5953  5955  5957  5958    1  0.0000000000      0.6508444444       3
     5953  5955  5957  5959    1  0.0000000000      0.6508444444       3
     5956  5955  5957  5958    1  0.0000000000      0.6508444444       3
     5953  5955  5957  5919    1  0.0000000000      0.6508444444       3
     5918  5955  5957  5958    1  0.0000000000      0.6508444444       3
     4255  4256  4257  4258    1  180.0000000000    15.1670000000      2
     4255  4256  4257  4262    1  180.0000000000    15.1670000000      2
     4269  4256  4257  4258    1  180.0000000000    15.1670000000      2
     4255  4256  4269  4253    1  180.0000000000    1.0041600000       2
     4255  4256  4269  4270    1  0.0000000000      0.0000000000       1
     4255  4256  4269  4271    1  180.0000000000    1.0041600000       2
     4257  4256  4269  4253    1  180.0000000000    1.0041600000       2
     4257  4256  4269  4270    1  0.0000000000      0.0000000000       1
     4257  4256  4269  4271    1  180.0000000000    1.0041600000       2
     5902  5932  5933  5898    1  180.0000000000    15.1670000000      2
     5902  5932  5933  5934    1  180.0000000000    15.1670000000      2
     5905  5932  5933  5898    1  180.0000000000    15.1670000000      2
     5905  5932  5933  5934    1  180.0000000000    15.1670000000      2
     4243  4244  4246  4247    1  180.0000000000    15.1670000000      2
     4243  4244  4246  4276    1  180.0000000000    15.1670000000      2
     4245  4244  4246  4247    1  180.0000000000    15.1670000000      2
     4245  4244  4246  4276    1  180.0000000000    15.1670000000      2
     5899  5900  5902  5903    1  180.0000000000    15.1670000000      2
     5899  5900  5902  5932    1  180.0000000000    15.1670000000      2
     5901  5900  5902  5903    1  180.0000000000    15.1670000000      2
     5901  5900  5902  5932    1  180.0000000000    15.1670000000      2
     5951  5953  5955  5956    1  0.0000000000      0.5439200000       3
     5951  5953  5955  5957    1  0.0000000000      2.1756800000       3
     5954  5953  5955  5956    1  0.0000000000      0.5020800000       3
     5954  5953  5955  5957    1  0.0000000000      0.5439200000       3
     5961  5953  5955  5956    1  0.0000000000      0.5439200000       3
     5961  5953  5955  5957    1  0.0000000000      2.1756800000       3
     5951  5953  5961  5959    1  0.0000000000      0.6508444444       3
     5951  5953  5961  5962    1  0.0000000000      0.6508444444       3
     5951  5953  5961  5963    1  0.0000000000      0.6508444444       3
     5954  5953  5961  5959    1  0.0000000000      0.5439200000       3
     5954  5953  5961  5962    1  0.0000000000      0.5020800000       3
     5954  5953  5961  5963    1  0.0000000000      0.5020800000       3
     5955  5953  5961  5962    1  0.0000000000      0.6508444444       3
     5955  5953  5961  5963    1  0.0000000000      0.6508444444       3
     5955  5953  5951  5949    1  0.0000000000      2.1756800000       3
     5955  5953  5951  5952    1  0.0000000000      0.5439200000       3
     5955  5953  5951  5964    1  0.0000000000      0.6508444444       3
     5954  5953  5955  5918    1  0.0000000000      0.6508444444       3
     5961  5953  5955  5918    1  0.0000000000      0.6508444444       3
     5951  5953  5955  5918    1  0.0000000000      0.6508444444       3
     5913  5918  5919  5920    1  180.0000000000    15.1670000000      2
     5913  5918  5919  5957    1  180.0000000000    15.1670000000      2
     5919  5918  5955  5953    1  180.0000000000    1.0041600000       2
     5913  5918  5955  5953    1  180.0000000000    1.0041600000       2
     5919  5918  5955  5956    1  0.0000000000      0.0000000000       1
     5913  5918  5955  5956    1  0.0000000000      0.0000000000       1
     5919  5918  5955  5957    1  180.0000000000    1.0041600000       2
     5913  5918  5955  5957    1  180.0000000000    1.0041600000       2
     5907  5909  5911  5912    1  180.0000000000    1.0041600000       2
     5907  5909  5911  5920    1  180.0000000000    1.0041600000       2
     5910  5909  5911  5912    1  0.0000000000      0.0000000000       1
     5910  5909  5911  5920    1  0.0000000000      0.0000000000       1
     5925  5909  5911  5912    1  180.0000000000    1.0041600000       2
     5925  5909  5911  5920    1  180.0000000000    1.0041600000       2
     5907  5909  5925  5912    1  0.0000000000      0.6508444444       3
     5907  5909  5925  5926    1  0.0000000000      0.6508444444       3
     5907  5909  5925  5927    1  0.0000000000      0.6508444444       3
     5910  5909  5925  5912    1  0.0000000000      0.6508444444       3
     5910  5909  5925  5926    1  0.0000000000      0.6508444444       3
     5910  5909  5925  5927    1  0.0000000000      0.6508444444       3
     5911  5909  5925  5912    1  0.0000000000      0.6508444444       3
     5911  5909  5925  5926    1  0.0000000000      0.6508444444       3
     5911  5909  5925  5927    1  0.0000000000      0.6508444444       3
     4983  4993  4995  4987    1  0.0000000000      0.6508444444       3
     4983  4993  4995  4996    1  0.0000000000      0.6508444444       3
     4983  4993  4995  4997    1  0.0000000000      0.6508444444       3
     4991  4993  4995  4996    1  0.0000000000      0.6508444444       3
     4991  4993  4995  4997    1  0.0000000000      0.6508444444       3
     4994  4993  4995  4987    1  0.0000000000      0.5439200000       3
     4994  4993  4995  4996    1  0.0000000000      0.5020800000       3
     4994  4993  4995  4997    1  0.0000000000      0.5020800000       3
     4983  4993  4991  4989    1  0.0000000000      2.1756800000       3
     4994  4993  4991  4989    1  0.0000000000      0.5439200000       3
     4995  4993  4991  4989    1  0.0000000000      2.1756800000       3
     4983  4993  4991  4992    1  0.0000000000      0.5439200000       3
     4994  4993  4991  4992    1  0.0000000000      0.5020800000       3
     4995  4993  4991  4992    1  0.0000000000      0.5439200000       3
     4991  4993  4983  4982    1  0.0000000000      0.6508444444       3
     4991  4993  4983  4984    1  0.0000000000      0.5439200000       3
     4991  4993  4983  4985    1  0.0000000000      2.1756800000       3
     4994  4993  4991  4332    1  0.0000000000      0.6508444444       3
     4995  4993  4991  4332    1  0.0000000000      0.6508444444       3
     4983  4993  4991  4332    1  0.0000000000      0.6508444444       3
     4259  4258  4257  4262    1  0.0000000000      0.0000000000       2
     4260  4258  4257  4262    1  0.0000000000      0.0000000000       2
     4261  4258  4257  4262    1  0.0000000000      0.0000000000       2
     5902  5903  5905  5906    1  0.0000000000      0.6508444444       3
     5902  5903  5905  5907    1  0.0000000000      0.6508444444       3
     5902  5903  5905  5932    1  0.0000000000      0.6508444444       3
     5904  5903  5905  5906    1  0.0000000000      0.6508444444       3
     5904  5903  5905  5907    1  0.0000000000      0.6508444444       3
     5904  5903  5905  5932    1  0.0000000000      0.6508444444       3
     5927  5903  5905  5906    1  0.0000000000      0.6508444444       3
     5927  5903  5905  5907    1  0.0000000000      0.6508444444       3
     5927  5903  5905  5932    1  0.0000000000      0.6508444444       3
     5902  5903  5927  5925    1  0.0000000000      0.6508444444       3
     5902  5903  5927  5928    1  0.0000000000      0.6508444444       3
     5902  5903  5927  5929    1  0.0000000000      0.6508444444       3
     5904  5903  5927  5925    1  0.0000000000      0.5439200000       3
     5904  5903  5927  5928    1  0.0000000000      0.5020800000       3
     5904  5903  5927  5929    1  0.0000000000      0.5439200000       3
     5905  5903  5927  5925    1  0.0000000000      2.1756800000       3
     5905  5903  5927  5928    1  0.0000000000      0.5439200000       3
     5905  5903  5927  5929    1  0.0000000000      2.1756800000       3
     5922  5921  5920  5919    1  0.0000000000      0.0000000000       2
     5923  5921  5920  5919    1  0.0000000000      0.0000000000       2
     5924  5921  5920  5919    1  0.0000000000      0.0000000000       2
     5905  5907  5909  5910    1  0.0000000000      0.5439200000       3
     5905  5907  5909  5911    1  0.0000000000      0.6508444444       3
     5905  5907  5909  5925    1  0.0000000000      2.1756800000       3
     5908  5907  5909  5910    1  0.0000000000      0.5020800000       3
     5908  5907  5909  5911    1  0.0000000000      0.6508444444       3
     5908  5907  5909  5925    1  0.0000000000      0.5439200000       3
     5929  5907  5909  5910    1  0.0000000000      0.5439200000       3
     5929  5907  5909  5911    1  0.0000000000      0.6508444444       3
     5929  5907  5909  5925    1  0.0000000000      2.1756800000       3
     5905  5907  5929  5927    1  0.0000000000      0.6508444444       3
     5905  5907  5929  5930    1  0.0000000000      0.6508444444       3
     5905  5907  5929  5931    1  0.0000000000      0.6508444444       3
     5908  5907  5929  5927    1  0.0000000000      0.5439200000       3
     5908  5907  5929  5930    1  0.0000000000      0.5020800000       3
     5908  5907  5929  5931    1  0.0000000000      0.5020800000       3
     5909  5907  5929  5927    1  0.0000000000      0.6508444444       3
     5909  5907  5929  5930    1  0.0000000000      0.6508444444       3
     5909  5907  5929  5931    1  0.0000000000      0.6508444444       3
     5918  5913  5912  5925    1  180.0000000000    15.1670000000      2
     5912  5913  5914  5915    1  0.0000000000      0.0000000000       2
     5912  5913  5914  5916    1  0.0000000000      0.0000000000       2
     5912  5913  5914  5917    1  0.0000000000      0.0000000000       2
     5912  5913  5918  5919    1  180.0000000000    15.1670000000      2
     5914  5913  5918  5919    1  180.0000000000    15.1670000000      2
     5912  5913  5918  5955    1  180.0000000000    15.1670000000      2
     5914  5913  5918  5955    1  180.0000000000    15.1670000000      2
     4331  4332  4333  4324    1  180.0000000000    15.1670000000      2
     4333  4332  4331  4989    1  180.0000000000    15.1670000000      2
     4331  4332  4991  4989    1  180.0000000000    1.0041600000       2
     4333  4332  4991  4989    1  180.0000000000    1.0041600000       2
     4331  4332  4991  4992    1  0.0000000000      0.0000000000       1
     4333  4332  4991  4992    1  0.0000000000      0.0000000000       1
     4331  4332  4991  4993    1  180.0000000000    1.0041600000       2
     4333  4332  4991  4993    1  180.0000000000    1.0041600000       2
     3776  3775  3774  3779    1  0.0000000000      0.0000000000       2
     3777  3775  3774  3779    1  0.0000000000      0.0000000000       2
     3778  3775  3774  3779    1  0.0000000000      0.0000000000       2
     3774  3779  3780  3781    1  180.0000000000    15.1670000000      2
     5060  3779  3780  5058    1  180.0000000000    15.1670000000      2
     3780  3779  5060  5061    1  0.0000000000      0.0000000000       1
     3774  3779  5060  5061    1  0.0000000000      0.0000000000       1
     3780  3779  5060  5062    1  180.0000000000    1.0041600000       2
     3774  3779  5060  5062    1  180.0000000000    1.0041600000       2
     3780  3779  5060  5058    1  180.0000000000    1.0041600000       2
     3774  3779  5060  5058    1  180.0000000000    1.0041600000       2
     3774  3779  3780  5058    1  180.0000000000    15.1670000000      2
     5051  5052  5054  5055    1  0.0000000000      0.6508444444       3
     5051  5052  5054  5056    1  0.0000000000      0.6508444444       3
     5051  5052  5054  5067    1  0.0000000000      0.6508444444       3
     5053  5052  5054  5055    1  0.0000000000      0.6508444444       3
     5053  5052  5054  5056    1  0.0000000000      0.6508444444       3
     5053  5052  5054  5067    1  0.0000000000      0.6508444444       3
     5062  5052  5054  5055    1  0.0000000000      0.6508444444       3
     5062  5052  5054  5056    1  0.0000000000      0.6508444444       3
     5062  5052  5054  5067    1  0.0000000000      0.6508444444       3
     5051  5052  5062  5063    1  0.0000000000      0.6508444444       3
     5051  5052  5062  5064    1  0.0000000000      0.6508444444       3
     5053  5052  5062  5063    1  0.0000000000      0.5020800000       3
     5053  5052  5062  5064    1  0.0000000000      0.5439200000       3
     5054  5052  5062  5063    1  0.0000000000      0.5439200000       3
     5054  5052  5062  5064    1  0.0000000000      2.1756800000       3
     5058  5056  5054  5052    1  0.0000000000      2.1756800000       3
     5058  5056  5054  5055    1  0.0000000000      0.5439200000       3
     5058  5056  5054  5067    1  0.0000000000      0.6508444444       3
     5054  5056  5058  5059    1  0.0000000000      0.5439200000       3
     5054  5056  5058  5060    1  0.0000000000      2.1756800000       3
     5057  5056  5058  5059    1  0.0000000000      0.5020800000       3
     5057  5056  5058  5060    1  0.0000000000      0.5439200000       3
     5064  5056  5058  5059    1  0.0000000000      0.5439200000       3
     5064  5056  5058  5060    1  0.0000000000      2.1756800000       3
     5054  5056  5064  5062    1  0.0000000000      0.6508444444       3
     5054  5056  5064  5065    1  0.0000000000      0.6508444444       3
     5054  5056  5064  5066    1  0.0000000000      0.6508444444       3
     5057  5056  5064  5062    1  0.0000000000      0.5439200000       3
     5057  5056  5064  5065    1  0.0000000000      0.5020800000       3
     5057  5056  5064  5066    1  0.0000000000      0.5020800000       3
     5058  5056  5064  5065    1  0.0000000000      0.6508444444       3
     5058  5056  5064  5066    1  0.0000000000      0.6508444444       3
     5054  5056  5058  3780    1  0.0000000000      0.6508444444       3
     5057  5056  5058  3780    1  0.0000000000      0.6508444444       3
     5064  5056  5058  3780    1  0.0000000000      0.6508444444       3
     5062  5060  5058  5059    1  0.0000000000      0.6508444444       3
     3779  5060  5058  5059    1  0.0000000000      0.6508444444       3
     3779  5060  5058  3780    1  0.0000000000      0.6508444444       3
     5062  5060  5058  3780    1  0.0000000000      0.6508444444       3
     5052  5062  5060  5058    1  0.0000000000      2.1756800000       3
     5063  5062  5060  5058    1  0.0000000000      0.5439200000       3
     5064  5062  5060  5058    1  0.0000000000      2.1756800000       3
     5052  5062  5060  5061    1  0.0000000000      0.5439200000       3
     5063  5062  5060  5061    1  0.0000000000      0.5020800000       3
     5064  5062  5060  5061    1  0.0000000000      0.5439200000       3
     5052  5062  5064  5056    1  0.0000000000      0.6508444444       3
     5052  5062  5064  5065    1  0.0000000000      0.6508444444       3
     5052  5062  5064  5066    1  0.0000000000      0.6508444444       3
     5060  5062  5064  5065    1  0.0000000000      0.6508444444       3
     5060  5062  5064  5066    1  0.0000000000      0.6508444444       3
     5063  5062  5064  5056    1  0.0000000000      0.5439200000       3
     5063  5062  5064  5065    1  0.0000000000      0.5020800000       3
     5063  5062  5064  5066    1  0.0000000000      0.5020800000       3
     5060  5062  5052  5051    1  0.0000000000      0.6508444444       3
     5060  5062  5052  5053    1  0.0000000000      0.5439200000       3
     5060  5062  5052  5054    1  0.0000000000      2.1756800000       3
     5063  5062  5060  3779    1  0.0000000000      0.6508444444       3
     5064  5062  5060  3779    1  0.0000000000      0.6508444444       3
     5052  5062  5060  3779    1  0.0000000000      0.6508444444       3
     5056  5064  5062  5060    1  0.0000000000      0.6508444444       3
     5062  5064  5056  5058    1  0.0000000000      0.6508444444       3
     5051  5067  5068  5047    1  180.0000000000    15.1670000000      2
     5051  5067  5068  5069    1  180.0000000000    15.1670000000      2
     5054  5067  5068  5047    1  180.0000000000    15.1670000000      2
     5054  5067  5068  5069    1  180.0000000000    15.1670000000      2
     3779  3774  3773  3786    1  180.0000000000    15.1670000000      2
     3773  3774  3775  3776    1  0.0000000000      0.0000000000       2
     3773  3774  3775  3777    1  0.0000000000      0.0000000000       2
     3773  3774  3775  3778    1  0.0000000000      0.0000000000       2
     3773  3774  3779  3780    1  180.0000000000    15.1670000000      2
     3775  3774  3779  3780    1  180.0000000000    15.1670000000      2
     3773  3774  3779  5060    1  180.0000000000    15.1670000000      2
     3775  3774  3779  5060    1  180.0000000000    15.1670000000      2
     3779  3780  3781  3772    1  180.0000000000    15.1670000000      2
     3781  3780  3779  5060    1  180.0000000000    15.1670000000      2
     3779  3780  5058  5059    1  0.0000000000      0.0000000000       1
     3781  3780  5058  5059    1  0.0000000000      0.0000000000       1
     3779  3780  5058  5060    1  180.0000000000    1.0041600000       2
     3781  3780  5058  5060    1  180.0000000000    1.0041600000       2
     3779  3780  5058  5056    1  180.0000000000    1.0041600000       2
     3781  3780  5058  5056    1  180.0000000000    1.0041600000       2
     5052  5054  5056  5057    1  0.0000000000      0.5439200000       3
     5052  5054  5056  5064    1  0.0000000000      2.1756800000       3
     5055  5054  5056  5057    1  0.0000000000      0.5020800000       3
     5055  5054  5056  5064    1  0.0000000000      0.5439200000       3
     5067  5054  5056  5057    1  0.0000000000      0.6508444444       3
     5067  5054  5056  5064    1  0.0000000000      0.6508444444       3
     5052  5054  5067  5051    1  180.0000000000    1.0041600000       2
     5052  5054  5067  5068    1  180.0000000000    1.0041600000       2
     5055  5054  5067  5051    1  0.0000000000      0.0000000000       1
     5055  5054  5067  5068    1  0.0000000000      0.0000000000       1
     5056  5054  5067  5051    1  180.0000000000    1.0041600000       2
     5056  5054  5067  5068    1  180.0000000000    1.0041600000       2
     5056  5058  5060  5061    1  0.0000000000      0.6508444444       3
     5056  5058  5060  5062    1  0.0000000000      0.6508444444       3
     5059  5058  5060  5061    1  0.0000000000      0.6508444444       3
     5056  5058  5060  3779    1  0.0000000000      0.6508444444       3
     3780  5058  5060  5061    1  0.0000000000      0.6508444444       3
     379   380   382   383     1  180.0000000000    15.1670000000      2
     379   380   382   412     1  180.0000000000    15.1670000000      2
     381   380   382   383     1  180.0000000000    15.1670000000      2
     381   380   382   412     1  180.0000000000    15.1670000000      2
     1765  1767  1769  1770    1  0.0000000000      0.5439200000       3
     1765  1767  1769  1771    1  0.0000000000      0.6508444444       3
     1765  1767  1769  1785    1  0.0000000000      2.1756800000       3
     1768  1767  1769  1770    1  0.0000000000      0.5020800000       3
     1768  1767  1769  1771    1  0.0000000000      0.6508444444       3
     1768  1767  1769  1785    1  0.0000000000      0.5439200000       3
     1789  1767  1769  1770    1  0.0000000000      0.5439200000       3
     1789  1767  1769  1771    1  0.0000000000      0.6508444444       3
     1789  1767  1769  1785    1  0.0000000000      2.1756800000       3
     1765  1767  1789  1787    1  0.0000000000      0.6508444444       3
     1765  1767  1789  1790    1  0.0000000000      0.6508444444       3
     1765  1767  1789  1791    1  0.0000000000      0.6508444444       3
     1768  1767  1789  1787    1  0.0000000000      0.5439200000       3
     1768  1767  1789  1790    1  0.0000000000      0.5020800000       3
     1768  1767  1789  1791    1  0.0000000000      0.5020800000       3
     1769  1767  1789  1787    1  0.0000000000      0.6508444444       3
     1769  1767  1789  1790    1  0.0000000000      0.6508444444       3
     1769  1767  1789  1791    1  0.0000000000      0.6508444444       3
     5049  5051  5052  5053    1  0.0000000000      0.0000000000       1
     5049  5051  5052  5054    1  180.0000000000    1.0041600000       2
     5049  5051  5052  5062    1  180.0000000000    1.0041600000       2
     5067  5051  5052  5053    1  0.0000000000      0.0000000000       1
     5067  5051  5052  5054    1  180.0000000000    1.0041600000       2
     5067  5051  5052  5062    1  180.0000000000    1.0041600000       2
     5049  5051  5067  5054    1  180.0000000000    15.1670000000      2
     5049  5051  5067  5068    1  180.0000000000    15.1670000000      2
     5052  5051  5067  5054    1  180.0000000000    15.1670000000      2
     5052  5051  5067  5068    1  180.0000000000    15.1670000000      2
     4266  4265  4264  4263    1  0.0000000000      0.0000000000       2
     4267  4265  4264  4263    1  0.0000000000      0.0000000000       2
     4268  4265  4264  4263    1  0.0000000000      0.0000000000       2
     1767  1769  1771  1772    1  180.0000000000    1.0041600000       2
     1767  1769  1771  1780    1  180.0000000000    1.0041600000       2
     1770  1769  1771  1772    1  0.0000000000      0.0000000000       1
     1770  1769  1771  1780    1  0.0000000000      0.0000000000       1
     1785  1769  1771  1772    1  180.0000000000    1.0041600000       2
     1785  1769  1771  1780    1  180.0000000000    1.0041600000       2
     1767  1769  1785  1772    1  0.0000000000      0.6508444444       3
     1767  1769  1785  1786    1  0.0000000000      0.6508444444       3
     1767  1769  1785  1787    1  0.0000000000      0.6508444444       3
     1770  1769  1785  1772    1  0.0000000000      0.6508444444       3
     1770  1769  1785  1786    1  0.0000000000      0.6508444444       3
     1770  1769  1785  1787    1  0.0000000000      0.6508444444       3
     1771  1769  1785  1772    1  0.0000000000      0.6508444444       3
     1771  1769  1785  1786    1  0.0000000000      0.6508444444       3
     1771  1769  1785  1787    1  0.0000000000      0.6508444444       3
     5042  5047  5048  5049    1  180.0000000000    15.1670000000      2
     5042  5047  5048  5070    1  180.0000000000    15.1670000000      2
     5068  5047  5048  5049    1  180.0000000000    15.1670000000      2
     5068  5047  5048  5070    1  180.0000000000    15.1670000000      2
     5042  5047  5068  5067    1  180.0000000000    15.1670000000      2
     5042  5047  5068  5069    1  180.0000000000    15.1670000000      2
     5048  5047  5068  5067    1  180.0000000000    15.1670000000      2
     5048  5047  5068  5069    1  180.0000000000    15.1670000000      2
     350   379   380   381     1  180.0000000000    15.1670000000      2
     350   379   380   382     1  180.0000000000    15.1670000000      2
     378   379   380   381     1  180.0000000000    15.1670000000      2
     378   379   380   382     1  180.0000000000    15.1670000000      2
     392   393   394   395     1  0.0000000000      0.0000000000       2
     392   393   394   396     1  0.0000000000      0.0000000000       2
     392   393   394   397     1  0.0000000000      0.0000000000       2
     398   393   394   395     1  0.0000000000      0.0000000000       2
     398   393   394   396     1  0.0000000000      0.0000000000       2
     398   393   394   397     1  0.0000000000      0.0000000000       2
     392   393   398   399     1  180.0000000000    15.1670000000      2
     394   393   398   399     1  180.0000000000    15.1670000000      2
     5048  5049  5051  5052    1  180.0000000000    15.1670000000      2
     5048  5049  5051  5067    1  180.0000000000    15.1670000000      2
     5050  5049  5051  5052    1  180.0000000000    15.1670000000      2
     5050  5049  5051  5067    1  180.0000000000    15.1670000000      2
     391   392   393   394     1  180.0000000000    15.1670000000      2
     391   392   393   398     1  180.0000000000    15.1670000000      2
     405   392   393   394     1  180.0000000000    15.1670000000      2
     405   392   393   398     1  180.0000000000    15.1670000000      2
     391   392   405   389     1  180.0000000000    1.0041600000       2
     391   392   405   406     1  0.0000000000      0.0000000000       1
     391   392   405   407     1  180.0000000000    1.0041600000       2
     393   392   405   389     1  180.0000000000    1.0041600000       2
     393   392   405   406     1  0.0000000000      0.0000000000       1
     393   392   405   407     1  180.0000000000    1.0041600000       2
     383   407   409   387     1  0.0000000000      0.6508444444       3
     383   407   409   410     1  0.0000000000      0.6508444444       3
     383   407   409   411     1  0.0000000000      0.6508444444       3
     405   407   409   387     1  0.0000000000      0.6508444444       3
     405   407   409   410     1  0.0000000000      0.6508444444       3
     405   407   409   411     1  0.0000000000      0.6508444444       3
     408   407   409   387     1  0.0000000000      0.5439200000       3
     408   407   409   410     1  0.0000000000      0.5020800000       3
     408   407   409   411     1  0.0000000000      0.5020800000       3
     1763  1765  1767  1768    1  0.0000000000      0.5439200000       3
     1763  1765  1767  1769    1  0.0000000000      2.1756800000       3
     1763  1765  1767  1789    1  0.0000000000      2.1756800000       3
     1766  1765  1767  1768    1  0.0000000000      0.5020800000       3
     1766  1765  1767  1769    1  0.0000000000      0.5439200000       3
     1766  1765  1767  1789    1  0.0000000000      0.5439200000       3
     1792  1765  1767  1768    1  0.0000000000      0.6508444444       3
     1792  1765  1767  1769    1  0.0000000000      0.6508444444       3
     1792  1765  1767  1789    1  0.0000000000      0.6508444444       3
     1763  1765  1792  1762    1  180.0000000000    1.0041600000       2
     1763  1765  1792  1793    1  180.0000000000    1.0041600000       2
     1766  1765  1792  1762    1  0.0000000000      0.0000000000       1
     1766  1765  1792  1793    1  0.0000000000      0.0000000000       1
     1767  1765  1792  1762    1  180.0000000000    1.0041600000       2
     1767  1765  1792  1793    1  180.0000000000    1.0041600000       2
     829   833   834   835     1  0.0000000000      0.5439200000       3
     829   833   834   836     1  0.0000000000      0.5439200000       3
     829   833   834   837     1  0.0000000000      0.5439200000       3
     838   833   834   835     1  0.0000000000      0.6508444444       3
     838   833   834   836     1  0.0000000000      0.6508444444       3
     838   833   834   837     1  0.0000000000      0.6508444444       3
     862   833   834   835     1  0.0000000000      0.6508444444       3
     862   833   834   836     1  0.0000000000      0.6508444444       3
     862   833   834   837     1  0.0000000000      0.6508444444       3
     829   833   838   839     1  0.0000000000      0.0000000000       2
     829   833   838   859     1  180.0000000000    1.0041600000       2
     834   833   838   839     1  0.0000000000      0.0000000000       2
     834   833   838   859     1  180.0000000000    1.0041600000       2
     862   833   838   839     1  0.0000000000      0.0000000000       2
     862   833   838   859     1  180.0000000000    0.0000000000       2
     829   833   862   861     1  0.0000000000      0.0000000000       2
     829   833   862   863     1  180.0000000000    1.0041600000       2
     834   833   862   861     1  0.0000000000      0.0000000000       2
     834   833   862   863     1  180.0000000000    1.0041600000       2
     838   833   862   861     1  0.0000000000      0.0000000000       2
     838   833   862   863     1  180.0000000000    0.0000000000       2
     4253  4255  4256  4257    1  180.0000000000    15.1670000000      2
     4253  4255  4256  4269    1  180.0000000000    15.1670000000      2
     4264  4255  4256  4257    1  180.0000000000    15.1670000000      2
     4264  4255  4256  4269    1  180.0000000000    15.1670000000      2
     4253  4255  4264  4265    1  180.0000000000    15.1670000000      2
     4256  4255  4264  4263    1  180.0000000000    15.1670000000      2
     4256  4255  4264  4265    1  180.0000000000    15.1670000000      2
     346   350   351   352     1  0.0000000000      0.5439200000       3
     346   350   351   353     1  0.0000000000      0.5439200000       3
     346   350   351   354     1  0.0000000000      0.5439200000       3
     355   350   351   352     1  0.0000000000      0.6508444444       3
     355   350   351   353     1  0.0000000000      0.6508444444       3
     355   350   351   354     1  0.0000000000      0.6508444444       3
     379   350   351   352     1  0.0000000000      0.6508444444       3
     379   350   351   353     1  0.0000000000      0.6508444444       3
     379   350   351   354     1  0.0000000000      0.6508444444       3
     346   350   355   356     1  0.0000000000      0.0000000000       2
     346   350   355   376     1  180.0000000000    1.0041600000       2
     351   350   355   356     1  0.0000000000      0.0000000000       2
     351   350   355   376     1  180.0000000000    1.0041600000       2
     379   350   355   356     1  0.0000000000      0.0000000000       2
     379   350   355   376     1  180.0000000000    0.0000000000       2
     346   350   379   378     1  0.0000000000      0.0000000000       2
     346   350   379   380     1  180.0000000000    1.0041600000       2
     351   350   379   378     1  0.0000000000      0.0000000000       2
     351   350   379   380     1  180.0000000000    1.0041600000       2
     355   350   379   378     1  0.0000000000      0.0000000000       2
     355   350   379   380     1  180.0000000000    0.0000000000       2
     2242  2243  2245  2246    1  180.0000000000    15.1670000000      2
     2242  2243  2245  2275    1  180.0000000000    15.1670000000      2
     2244  2243  2245  2246    1  180.0000000000    15.1670000000      2
     2244  2243  2245  2275    1  180.0000000000    15.1670000000      2
     347   346   350   351     1  0.0000000000      0.5439200000       3
     347   346   350   355     1  0.0000000000      0.6508444444       3
     347   346   350   379     1  0.0000000000      0.6508444444       3
     348   346   350   351     1  0.0000000000      0.5439200000       3
     348   346   350   355     1  0.0000000000      0.6508444444       3
     348   346   350   379     1  0.0000000000      0.6508444444       3
     349   346   350   351     1  0.0000000000      0.5439200000       3
     349   346   350   355     1  0.0000000000      0.6508444444       3
     349   346   350   379     1  0.0000000000      0.6508444444       3
     1769  1785  1787  1763    1  0.0000000000      2.1756800000       3
     1769  1785  1787  1788    1  0.0000000000      0.5439200000       3
     1769  1785  1787  1789    1  0.0000000000      2.1756800000       3
     1772  1785  1787  1763    1  0.0000000000      0.6508444444       3
     1772  1785  1787  1788    1  0.0000000000      0.6508444444       3
     1772  1785  1787  1789    1  0.0000000000      0.6508444444       3
     1786  1785  1787  1763    1  0.0000000000      0.5439200000       3
     1786  1785  1787  1788    1  0.0000000000      0.5020800000       3
     1786  1785  1787  1789    1  0.0000000000      0.5439200000       3
     380   382   383   384     1  0.0000000000      0.0000000000       1
     380   382   383   385     1  180.0000000000    1.0041600000       2
     380   382   383   407     1  180.0000000000    1.0041600000       2
     412   382   383   384     1  0.0000000000      0.0000000000       1
     412   382   383   385     1  180.0000000000    1.0041600000       2
     412   382   383   407     1  180.0000000000    1.0041600000       2
     380   382   412   385     1  180.0000000000    15.1670000000      2
     380   382   412   413     1  180.0000000000    15.1670000000      2
     383   382   412   385     1  180.0000000000    15.1670000000      2
     383   382   412   413     1  180.0000000000    15.1670000000      2
     1763  1787  1789  1767    1  0.0000000000      0.6508444444       3
     1763  1787  1789  1790    1  0.0000000000      0.6508444444       3
     1763  1787  1789  1791    1  0.0000000000      0.6508444444       3
     1785  1787  1789  1767    1  0.0000000000      0.6508444444       3
     1785  1787  1789  1790    1  0.0000000000      0.6508444444       3
     1785  1787  1789  1791    1  0.0000000000      0.6508444444       3
     1788  1787  1789  1767    1  0.0000000000      0.5439200000       3
     1788  1787  1789  1790    1  0.0000000000      0.5020800000       3
     1788  1787  1789  1791    1  0.0000000000      0.5020800000       3
     1769  1771  1772  1773    1  180.0000000000    15.1670000000      2
     1769  1771  1772  1785    1  180.0000000000    15.1670000000      2
     1780  1771  1772  1773    1  180.0000000000    15.1670000000      2
     1780  1771  1772  1785    1  180.0000000000    15.1670000000      2
     1769  1771  1780  1781    1  180.0000000000    15.1670000000      2
     1772  1771  1780  1779    1  180.0000000000    15.1670000000      2
     1772  1771  1780  1781    1  180.0000000000    15.1670000000      2
     389   391   392   393     1  180.0000000000    15.1670000000      2
     389   391   392   405     1  180.0000000000    15.1670000000      2
     400   391   392   393     1  180.0000000000    15.1670000000      2
     400   391   392   405     1  180.0000000000    15.1670000000      2
     389   391   400   399     1  180.0000000000    15.1670000000      2
     389   391   400   401     1  180.0000000000    15.1670000000      2
     392   391   400   399     1  180.0000000000    15.1670000000      2
     392   391   400   401     1  180.0000000000    15.1670000000      2
     382   383   385   386     1  0.0000000000      0.6508444444       3
     382   383   385   387     1  0.0000000000      0.6508444444       3
     382   383   385   412     1  0.0000000000      0.6508444444       3
     384   383   385   386     1  0.0000000000      0.6508444444       3
     384   383   385   387     1  0.0000000000      0.6508444444       3
     384   383   385   412     1  0.0000000000      0.6508444444       3
     407   383   385   386     1  0.0000000000      0.6508444444       3
     407   383   385   387     1  0.0000000000      0.6508444444       3
     407   383   385   412     1  0.0000000000      0.6508444444       3
     382   383   407   405     1  0.0000000000      0.6508444444       3
     382   383   407   408     1  0.0000000000      0.6508444444       3
     382   383   407   409     1  0.0000000000      0.6508444444       3
     384   383   407   405     1  0.0000000000      0.5439200000       3
     384   383   407   408     1  0.0000000000      0.5020800000       3
     384   383   407   409     1  0.0000000000      0.5439200000       3
     385   383   407   405     1  0.0000000000      2.1756800000       3
     385   383   407   408     1  0.0000000000      0.5439200000       3
     385   383   407   409     1  0.0000000000      2.1756800000       3
     393   398   399   400     1  180.0000000000    15.1670000000      2
     4247  4249  4251  4252    1  0.0000000000      0.5439200000       3
     4247  4249  4251  4253    1  0.0000000000      2.1756800000       3
     4247  4249  4251  4273    1  0.0000000000      2.1756800000       3
     4250  4249  4251  4252    1  0.0000000000      0.5020800000       3
     4250  4249  4251  4253    1  0.0000000000      0.5439200000       3
     4250  4249  4251  4273    1  0.0000000000      0.5439200000       3
     4276  4249  4251  4252    1  0.0000000000      0.6508444444       3
     4276  4249  4251  4253    1  0.0000000000      0.6508444444       3
     4276  4249  4251  4273    1  0.0000000000      0.6508444444       3
     4247  4249  4276  4246    1  180.0000000000    1.0041600000       2
     4247  4249  4276  4277    1  180.0000000000    1.0041600000       2
     4250  4249  4276  4246    1  0.0000000000      0.0000000000       1
     4250  4249  4276  4277    1  0.0000000000      0.0000000000       1
     4251  4249  4276  4246    1  180.0000000000    1.0041600000       2
     4251  4249  4276  4277    1  180.0000000000    1.0041600000       2
     4246  4276  4277  4242    1  180.0000000000    15.1670000000      2
     4246  4276  4277  4278    1  180.0000000000    15.1670000000      2
     4249  4276  4277  4242    1  180.0000000000    15.1670000000      2
     4249  4276  4277  4278    1  180.0000000000    15.1670000000      2
     350   355   356   357     1  180.0000000000    15.1670000000      2
     350   355   356   378     1  180.0000000000    15.1670000000      2
     376   355   356   357     1  180.0000000000    15.1670000000      2
     376   355   356   378     1  180.0000000000    15.1670000000      2
     350   355   376   375     1  180.0000000000    15.1670000000      2
     350   355   376   377     1  180.0000000000    15.1670000000      2
     356   355   376   375     1  180.0000000000    15.1670000000      2
     356   355   376   377     1  180.0000000000    15.1670000000      2
     4263  4264  4255  4253    1  180.0000000000    15.1670000000      2
     4265  4264  4263  4262    1  180.0000000000    15.1670000000      2
     4255  4264  4265  4266    1  0.0000000000      0.0000000000       2
     4255  4264  4265  4267    1  0.0000000000      0.0000000000       2
     4255  4264  4265  4268    1  0.0000000000      0.0000000000       2
     4255  4264  4263  711     1  180.0000000000    15.1670000000      2
     4265  4264  4263  711     1  180.0000000000    15.1670000000      2
     2243  2245  2246  2247    1  0.0000000000      0.0000000000       1
     2243  2245  2246  2248    1  180.0000000000    1.0041600000       2
     2243  2245  2246  2270    1  180.0000000000    1.0041600000       2
     2275  2245  2246  2247    1  0.0000000000      0.0000000000       1
     2275  2245  2246  2248    1  180.0000000000    1.0041600000       2
     2275  2245  2246  2270    1  180.0000000000    1.0041600000       2
     2243  2245  2275  2248    1  180.0000000000    15.1670000000      2
     2243  2245  2275  2276    1  180.0000000000    15.1670000000      2
     2246  2245  2275  2248    1  180.0000000000    15.1670000000      2
     2246  2245  2275  2276    1  180.0000000000    15.1670000000      2
     391   400   401   402     1  0.0000000000      0.0000000000       2
     391   400   401   403     1  0.0000000000      0.0000000000       2
     391   400   401   404     1  0.0000000000      0.0000000000       2
     399   400   401   402     1  0.0000000000      0.0000000000       2
     399   400   401   403     1  0.0000000000      0.0000000000       2
     399   400   401   404     1  0.0000000000      0.0000000000       2
     713   715   705   704     1  0.0000000000      0.6508444444       3
     713   715   705   706     1  0.0000000000      0.5439200000       3
     713   715   705   707     1  0.0000000000      2.1756800000       3
     705   715   713   711     1  0.0000000000      2.1756800000       3
     716   715   713   711     1  0.0000000000      0.5439200000       3
     717   715   713   711     1  0.0000000000      2.1756800000       3
     705   715   713   714     1  0.0000000000      0.5439200000       3
     716   715   713   714     1  0.0000000000      0.5020800000       3
     717   715   713   714     1  0.0000000000      0.5439200000       3
     705   715   717   709     1  0.0000000000      0.6508444444       3
     705   715   717   718     1  0.0000000000      0.6508444444       3
     705   715   717   719     1  0.0000000000      0.6508444444       3
     713   715   717   718     1  0.0000000000      0.6508444444       3
     713   715   717   719     1  0.0000000000      0.6508444444       3
     716   715   717   709     1  0.0000000000      0.5439200000       3
     716   715   717   718     1  0.0000000000      0.5020800000       3
     716   715   717   719     1  0.0000000000      0.5020800000       3
     705   715   713   4262    1  0.0000000000      0.6508444444       3
     716   715   713   4262    1  0.0000000000      0.6508444444       3
     717   715   713   4262    1  0.0000000000      0.6508444444       3
     711   709   707   705     1  0.0000000000      2.1756800000       3
     711   709   707   708     1  0.0000000000      0.5439200000       3
     711   709   707   720     1  0.0000000000      0.6508444444       3
     707   709   711   712     1  0.0000000000      0.5439200000       3
     707   709   711   713     1  0.0000000000      2.1756800000       3
     710   709   711   712     1  0.0000000000      0.5020800000       3
     710   709   711   713     1  0.0000000000      0.5439200000       3
     717   709   711   712     1  0.0000000000      0.5439200000       3
     717   709   711   713     1  0.0000000000      2.1756800000       3
     707   709   717   715     1  0.0000000000      0.6508444444       3
     707   709   717   718     1  0.0000000000      0.6508444444       3
     707   709   717   719     1  0.0000000000      0.6508444444       3
     710   709   717   715     1  0.0000000000      0.5439200000       3
     710   709   717   718     1  0.0000000000      0.5020800000       3
     710   709   717   719     1  0.0000000000      0.5020800000       3
     711   709   717   718     1  0.0000000000      0.6508444444       3
     711   709   717   719     1  0.0000000000      0.6508444444       3
     707   709   711   4263    1  0.0000000000      0.6508444444       3
     710   709   711   4263    1  0.0000000000      0.6508444444       3
     717   709   711   4263    1  0.0000000000      0.6508444444       3
     715   713   711   712     1  0.0000000000      0.6508444444       3
     4262  713   711   712     1  0.0000000000      0.6508444444       3
     4262  713   711   4263    1  0.0000000000      0.6508444444       3
     715   713   711   4263    1  0.0000000000      0.6508444444       3
     5038  5042  5043  5044    1  0.0000000000      0.5439200000       3
     5038  5042  5043  5045    1  0.0000000000      0.5439200000       3
     5038  5042  5043  5046    1  0.0000000000      0.5439200000       3
     5047  5042  5043  5044    1  0.0000000000      0.6508444444       3
     5047  5042  5043  5045    1  0.0000000000      0.6508444444       3
     5047  5042  5043  5046    1  0.0000000000      0.6508444444       3
     5071  5042  5043  5044    1  0.0000000000      0.6508444444       3
     5071  5042  5043  5045    1  0.0000000000      0.6508444444       3
     5071  5042  5043  5046    1  0.0000000000      0.6508444444       3
     5038  5042  5047  5048    1  0.0000000000      0.0000000000       2
     5038  5042  5047  5068    1  180.0000000000    1.0041600000       2
     5043  5042  5047  5048    1  0.0000000000      0.0000000000       2
     5043  5042  5047  5068    1  180.0000000000    1.0041600000       2
     5071  5042  5047  5048    1  0.0000000000      0.0000000000       2
     5071  5042  5047  5068    1  180.0000000000    0.0000000000       2
     5038  5042  5071  5070    1  0.0000000000      0.0000000000       2
     5038  5042  5071  5072    1  180.0000000000    1.0041600000       2
     5043  5042  5071  5070    1  0.0000000000      0.0000000000       2
     5043  5042  5071  5072    1  180.0000000000    1.0041600000       2
     5047  5042  5071  5070    1  0.0000000000      0.0000000000       2
     5047  5042  5071  5072    1  180.0000000000    0.0000000000       2
     709   711   713   714     1  0.0000000000      0.6508444444       3
     709   711   713   715     1  0.0000000000      0.6508444444       3
     712   711   713   714     1  0.0000000000      0.6508444444       3
     709   711   713   4262    1  0.0000000000      0.6508444444       3
     4263  711   713   714     1  0.0000000000      0.6508444444       3
     4223  4239  4240  4219    1  180.0000000000    15.1670000000      2
     4223  4239  4240  4241    1  180.0000000000    15.1670000000      2
     4226  4239  4240  4219    1  180.0000000000    15.1670000000      2
     4226  4239  4240  4241    1  180.0000000000    15.1670000000      2
     5042  5071  5072  5073    1  180.0000000000    15.1670000000      2
     5042  5071  5072  5074    1  180.0000000000    15.1670000000      2
     5070  5071  5072  5073    1  180.0000000000    15.1670000000      2
     5070  5071  5072  5074    1  180.0000000000    15.1670000000      2
     4224  4226  4228  4229    1  0.0000000000      0.5439200000       3
     4224  4226  4228  4230    1  0.0000000000      2.1756800000       3
     4224  4226  4228  4236    1  0.0000000000      2.1756800000       3
     4227  4226  4228  4229    1  0.0000000000      0.5020800000       3
     4227  4226  4228  4230    1  0.0000000000      0.5439200000       3
     4227  4226  4228  4236    1  0.0000000000      0.5439200000       3
     4239  4226  4228  4229    1  0.0000000000      0.6508444444       3
     4239  4226  4228  4230    1  0.0000000000      0.6508444444       3
     4239  4226  4228  4236    1  0.0000000000      0.6508444444       3
     4224  4226  4239  4223    1  180.0000000000    1.0041600000       2
     4224  4226  4239  4240    1  180.0000000000    1.0041600000       2
     4227  4226  4239  4223    1  0.0000000000      0.0000000000       1
     4227  4226  4239  4240    1  0.0000000000      0.0000000000       1
     4228  4226  4239  4223    1  180.0000000000    1.0041600000       2
     4228  4226  4239  4240    1  180.0000000000    1.0041600000       2
     4257  4262  4263  4264    1  180.0000000000    15.1670000000      2
     713   4262  4263  711     1  180.0000000000    15.1670000000      2
     4263  4262  713   711     1  180.0000000000    1.0041600000       2
     4257  4262  713   711     1  180.0000000000    1.0041600000       2
     4263  4262  713   714     1  0.0000000000      0.0000000000       1
     4257  4262  713   714     1  0.0000000000      0.0000000000       1
     4263  4262  713   715     1  180.0000000000    1.0041600000       2
     4257  4262  713   715     1  180.0000000000    1.0041600000       2
     4257  4262  4263  711     1  180.0000000000    15.1670000000      2
     389   405   407   383     1  0.0000000000      2.1756800000       3
     389   405   407   408     1  0.0000000000      0.5439200000       3
     389   405   407   409     1  0.0000000000      2.1756800000       3
     392   405   407   383     1  0.0000000000      0.6508444444       3
     392   405   407   408     1  0.0000000000      0.6508444444       3
     392   405   407   409     1  0.0000000000      0.6508444444       3
     406   405   407   383     1  0.0000000000      0.5439200000       3
     406   405   407   408     1  0.0000000000      0.5020800000       3
     406   405   407   409     1  0.0000000000      0.5439200000       3
     4224  4234  4236  4228    1  0.0000000000      0.6508444444       3
     4224  4234  4236  4237    1  0.0000000000      0.6508444444       3
     4224  4234  4236  4238    1  0.0000000000      0.6508444444       3
     4232  4234  4236  4228    1  0.0000000000      2.1756800000       3
     4232  4234  4236  4237    1  0.0000000000      0.5439200000       3
     4232  4234  4236  4238    1  0.0000000000      0.5439200000       3
     4235  4234  4236  4228    1  0.0000000000      0.5439200000       3
     4235  4234  4236  4237    1  0.0000000000      0.5020800000       3
     4235  4234  4236  4238    1  0.0000000000      0.5020800000       3
     4214  4243  4244  4245    1  180.0000000000    15.1670000000      2
     4214  4243  4244  4246    1  180.0000000000    15.1670000000      2
     4242  4243  4244  4245    1  180.0000000000    15.1670000000      2
     4242  4243  4244  4246    1  180.0000000000    15.1670000000      2
     5048  5070  5071  5042    1  180.0000000000    15.1670000000      2
     5048  5070  5071  5072    1  180.0000000000    15.1670000000      2
     5105  5070  5071  5042    1  180.0000000000    15.1670000000      2
     5105  5070  5071  5072    1  180.0000000000    15.1670000000      2
     5048  5070  5105  5104    1  180.0000000000    15.1670000000      2
     5048  5070  5105  5106    1  180.0000000000    15.1670000000      2
     5071  5070  5105  5104    1  180.0000000000    15.1670000000      2
     5071  5070  5105  5106    1  180.0000000000    15.1670000000      2
     695   700   701   702     1  180.0000000000    15.1670000000      2
     695   700   701   723     1  180.0000000000    15.1670000000      2
     721   700   701   702     1  180.0000000000    15.1670000000      2
     721   700   701   723     1  180.0000000000    15.1670000000      2
     695   700   721   720     1  180.0000000000    15.1670000000      2
     695   700   721   722     1  180.0000000000    15.1670000000      2
     701   700   721   720     1  180.0000000000    15.1670000000      2
     701   700   721   722     1  180.0000000000    15.1670000000      2
     4228  4230  4232  4233    1  0.0000000000      0.5439200000       3
     4228  4230  4232  4234    1  0.0000000000      2.1756800000       3
     4231  4230  4232  4233    1  0.0000000000      0.5020800000       3
     4231  4230  4232  4234    1  0.0000000000      0.5439200000       3
     5047  5048  5049  5050    1  180.0000000000    15.1670000000      2
     5047  5048  5049  5051    1  180.0000000000    15.1670000000      2
     5070  5048  5049  5050    1  180.0000000000    15.1670000000      2
     5070  5048  5049  5051    1  180.0000000000    15.1670000000      2
     5047  5048  5070  5071    1  180.0000000000    4.1840000000       2
     5047  5048  5070  5105    1  180.0000000000    4.1840000000       2
     5049  5048  5070  5071    1  180.0000000000    4.1840000000       2
     5049  5048  5070  5105    1  180.0000000000    4.1840000000       2
     702   704   705   706     1  0.0000000000      0.0000000000       1
     702   704   705   707     1  180.0000000000    1.0041600000       2
     702   704   705   715     1  180.0000000000    1.0041600000       2
     720   704   705   706     1  0.0000000000      0.0000000000       1
     720   704   705   707     1  180.0000000000    1.0041600000       2
     720   704   705   715     1  180.0000000000    1.0041600000       2
     702   704   720   707     1  180.0000000000    15.1670000000      2
     702   704   720   721     1  180.0000000000    15.1670000000      2
     705   704   720   707     1  180.0000000000    15.1670000000      2
     705   704   720   721     1  180.0000000000    15.1670000000      2
     704   720   721   700     1  180.0000000000    15.1670000000      2
     704   720   721   722     1  180.0000000000    15.1670000000      2
     707   720   721   700     1  180.0000000000    15.1670000000      2
     707   720   721   722     1  180.0000000000    15.1670000000      2
     4220  4221  4223  4224    1  180.0000000000    15.1670000000      2
     4220  4221  4223  4239    1  180.0000000000    15.1670000000      2
     4222  4221  4223  4224    1  180.0000000000    15.1670000000      2
     4222  4221  4223  4239    1  180.0000000000    15.1670000000      2
     4223  4224  4226  4227    1  0.0000000000      0.6508444444       3
     4223  4224  4226  4228    1  0.0000000000      0.6508444444       3
     4223  4224  4226  4239    1  0.0000000000      0.6508444444       3
     4225  4224  4226  4227    1  0.0000000000      0.6508444444       3
     4225  4224  4226  4228    1  0.0000000000      0.6508444444       3
     4225  4224  4226  4239    1  0.0000000000      0.6508444444       3
     4234  4224  4226  4227    1  0.0000000000      0.6508444444       3
     4234  4224  4226  4228    1  0.0000000000      0.6508444444       3
     4234  4224  4226  4239    1  0.0000000000      0.6508444444       3
     4223  4224  4234  4232    1  0.0000000000      0.6508444444       3
     4223  4224  4234  4235    1  0.0000000000      0.6508444444       3
     4223  4224  4234  4236    1  0.0000000000      0.6508444444       3
     4225  4224  4234  4232    1  0.0000000000      0.5439200000       3
     4225  4224  4234  4235    1  0.0000000000      0.5020800000       3
     4225  4224  4234  4236    1  0.0000000000      0.5439200000       3
     4226  4224  4234  4232    1  0.0000000000      2.1756800000       3
     4226  4224  4234  4235    1  0.0000000000      0.5439200000       3
     4226  4224  4234  4236    1  0.0000000000      2.1756800000       3
     4262  4263  4264  4255    1  180.0000000000    15.1670000000      2
     4264  4263  4262  713     1  180.0000000000    15.1670000000      2
     4262  4263  711   709     1  180.0000000000    1.0041600000       2
     4264  4263  711   709     1  180.0000000000    1.0041600000       2
     4262  4263  711   712     1  0.0000000000      0.0000000000       1
     4264  4263  711   712     1  0.0000000000      0.0000000000       1
     4262  4263  711   713     1  180.0000000000    1.0041600000       2
     4264  4263  711   713     1  180.0000000000    1.0041600000       2
     705   707   709   710     1  0.0000000000      0.5439200000       3
     705   707   709   717     1  0.0000000000      2.1756800000       3
     708   707   709   710     1  0.0000000000      0.5020800000       3
     708   707   709   717     1  0.0000000000      0.5439200000       3
     720   707   709   710     1  0.0000000000      0.6508444444       3
     720   707   709   717     1  0.0000000000      0.6508444444       3
     705   707   720   704     1  180.0000000000    1.0041600000       2
     705   707   720   721     1  180.0000000000    1.0041600000       2
     708   707   720   704     1  0.0000000000      0.0000000000       1
     708   707   720   721     1  0.0000000000      0.0000000000       1
     709   707   720   704     1  180.0000000000    1.0041600000       2
     709   707   720   721     1  180.0000000000    1.0041600000       2
     4226  4228  4230  4231    1  0.0000000000      0.6508444444       3
     4226  4228  4230  4232    1  0.0000000000      0.6508444444       3
     4229  4228  4230  4231    1  0.0000000000      0.5020800000       3
     4229  4228  4230  4232    1  0.0000000000      0.5439200000       3
     4236  4228  4230  4231    1  0.0000000000      0.5439200000       3
     4236  4228  4230  4232    1  0.0000000000      2.1756800000       3
     4226  4228  4236  4234    1  0.0000000000      0.6508444444       3
     4226  4228  4236  4237    1  0.0000000000      0.6508444444       3
     4226  4228  4236  4238    1  0.0000000000      0.6508444444       3
     4229  4228  4236  4234    1  0.0000000000      0.5439200000       3
     4229  4228  4236  4237    1  0.0000000000      0.5020800000       3
     4229  4228  4236  4238    1  0.0000000000      0.5020800000       3
     4230  4228  4236  4234    1  0.0000000000      2.1756800000       3
     4230  4228  4236  4237    1  0.0000000000      0.5439200000       3
     4230  4228  4236  4238    1  0.0000000000      0.5439200000       3
     701   702   704   705     1  180.0000000000    15.1670000000      2
     701   702   704   720     1  180.0000000000    15.1670000000      2
     703   702   704   705     1  180.0000000000    15.1670000000      2
     703   702   704   720     1  180.0000000000    15.1670000000      2
     715   717   709   711     1  0.0000000000      0.6508444444       3
     709   717   715   713     1  0.0000000000      0.6508444444       3
     4220  4242  4243  4214    1  180.0000000000    15.1670000000      2
     4220  4242  4243  4244    1  180.0000000000    15.1670000000      2
     4277  4242  4243  4214    1  180.0000000000    15.1670000000      2
     4277  4242  4243  4244    1  180.0000000000    15.1670000000      2
     4220  4242  4277  4276    1  180.0000000000    15.1670000000      2
     4220  4242  4277  4278    1  180.0000000000    15.1670000000      2
     4243  4242  4277  4276    1  180.0000000000    15.1670000000      2
     4243  4242  4277  4278    1  180.0000000000    15.1670000000      2
     4211  4210  4214  4215    1  0.0000000000      0.5439200000       3
     4211  4210  4214  4219    1  0.0000000000      0.6508444444       3
     4211  4210  4214  4243    1  0.0000000000      0.6508444444       3
     4212  4210  4214  4215    1  0.0000000000      0.5439200000       3
     4212  4210  4214  4219    1  0.0000000000      0.6508444444       3
     4212  4210  4214  4243    1  0.0000000000      0.6508444444       3
     4213  4210  4214  4215    1  0.0000000000      0.5439200000       3
     4213  4210  4214  4219    1  0.0000000000      0.6508444444       3
     4213  4210  4214  4243    1  0.0000000000      0.6508444444       3
     4221  4223  4224  4225    1  0.0000000000      0.0000000000       1
     4221  4223  4224  4226    1  180.0000000000    1.0041600000       2
     4221  4223  4224  4234    1  180.0000000000    1.0041600000       2
     4239  4223  4224  4225    1  0.0000000000      0.0000000000       1
     4239  4223  4224  4226    1  180.0000000000    1.0041600000       2
     4239  4223  4224  4234    1  180.0000000000    1.0041600000       2
     4221  4223  4239  4226    1  180.0000000000    15.1670000000      2
     4221  4223  4239  4240    1  180.0000000000    15.1670000000      2
     4224  4223  4239  4226    1  180.0000000000    15.1670000000      2
     4224  4223  4239  4240    1  180.0000000000    15.1670000000      2
     5074  5104  5105  5070    1  180.0000000000    15.1670000000      2
     5074  5104  5105  5106    1  180.0000000000    15.1670000000      2
     5077  5104  5105  5070    1  180.0000000000    15.1670000000      2
     5077  5104  5105  5106    1  180.0000000000    15.1670000000      2
     4210  4214  4215  4216    1  0.0000000000      0.5439200000       3
     4210  4214  4215  4217    1  0.0000000000      0.5439200000       3
     4210  4214  4215  4218    1  0.0000000000      0.5439200000       3
     4219  4214  4215  4216    1  0.0000000000      0.6508444444       3
     4219  4214  4215  4217    1  0.0000000000      0.6508444444       3
     4219  4214  4215  4218    1  0.0000000000      0.6508444444       3
     4243  4214  4215  4216    1  0.0000000000      0.6508444444       3
     4243  4214  4215  4217    1  0.0000000000      0.6508444444       3
     4243  4214  4215  4218    1  0.0000000000      0.6508444444       3
     4210  4214  4219  4220    1  0.0000000000      0.0000000000       2
     4210  4214  4219  4240    1  180.0000000000    1.0041600000       2
     4215  4214  4219  4220    1  0.0000000000      0.0000000000       2
     4215  4214  4219  4240    1  180.0000000000    1.0041600000       2
     4243  4214  4219  4220    1  0.0000000000      0.0000000000       2
     4243  4214  4219  4240    1  180.0000000000    0.0000000000       2
     4210  4214  4243  4242    1  0.0000000000      0.0000000000       2
     4210  4214  4243  4244    1  180.0000000000    1.0041600000       2
     4215  4214  4243  4242    1  0.0000000000      0.0000000000       2
     4215  4214  4243  4244    1  180.0000000000    1.0041600000       2
     4219  4214  4243  4242    1  0.0000000000      0.0000000000       2
     4219  4214  4243  4244    1  180.0000000000    0.0000000000       2
     4219  4220  4221  4222    1  180.0000000000    15.1670000000      2
     4219  4220  4221  4223    1  180.0000000000    15.1670000000      2
     4242  4220  4221  4222    1  180.0000000000    15.1670000000      2
     4242  4220  4221  4223    1  180.0000000000    15.1670000000      2
     4219  4220  4242  4243    1  180.0000000000    4.1840000000       2
     4219  4220  4242  4277    1  180.0000000000    4.1840000000       2
     4221  4220  4242  4243    1  180.0000000000    4.1840000000       2
     4221  4220  4242  4277    1  180.0000000000    4.1840000000       2
     4230  4232  4234  4224    1  0.0000000000      0.6508444444       3
     4230  4232  4234  4235    1  0.0000000000      0.5439200000       3
     4230  4232  4234  4236    1  0.0000000000      2.1756800000       3
     4233  4232  4234  4224    1  0.0000000000      0.6508444444       3
     4233  4232  4234  4235    1  0.0000000000      0.5020800000       3
     4233  4232  4234  4236    1  0.0000000000      0.5439200000       3
     4214  4219  4220  4221    1  180.0000000000    15.1670000000      2
     4214  4219  4220  4242    1  180.0000000000    15.1670000000      2
     4240  4219  4220  4221    1  180.0000000000    15.1670000000      2
     4240  4219  4220  4242    1  180.0000000000    15.1670000000      2
     4214  4219  4240  4239    1  180.0000000000    15.1670000000      2
     4214  4219  4240  4241    1  180.0000000000    15.1670000000      2
     4220  4219  4240  4239    1  180.0000000000    15.1670000000      2
     4220  4219  4240  4241    1  180.0000000000    15.1670000000      2
     704   705   707   708     1  0.0000000000      0.6508444444       3
     704   705   707   709     1  0.0000000000      0.6508444444       3
     704   705   707   720     1  0.0000000000      0.6508444444       3
     706   705   707   708     1  0.0000000000      0.6508444444       3
     706   705   707   709     1  0.0000000000      0.6508444444       3
     706   705   707   720     1  0.0000000000      0.6508444444       3
     715   705   707   708     1  0.0000000000      0.6508444444       3
     715   705   707   709     1  0.0000000000      0.6508444444       3
     715   705   707   720     1  0.0000000000      0.6508444444       3
     704   705   715   716     1  0.0000000000      0.6508444444       3
     704   705   715   717     1  0.0000000000      0.6508444444       3
     706   705   715   716     1  0.0000000000      0.5020800000       3
     706   705   715   717     1  0.0000000000      0.5439200000       3
     707   705   715   716     1  0.0000000000      0.5439200000       3
     707   705   715   717     1  0.0000000000      2.1756800000       3
     295   297   299   300     1  0.0000000000      0.6508444444       3
     295   297   299   301     1  0.0000000000      0.6508444444       3
     298   297   299   300     1  0.0000000000      0.6508444444       3
     5643  297   299   300     1  0.0000000000      0.6508444444       3
     5643  297   299   5642    1  0.0000000000      0.6508444444       3
     295   297   299   5642    1  0.0000000000      0.6508444444       3
     301   299   297   298     1  0.0000000000      0.6508444444       3
     301   299   297   5643    1  0.0000000000      0.6508444444       3
     5642  299   297   298     1  0.0000000000      0.6508444444       3
     299   301   291   290     1  0.0000000000      0.6508444444       3
     299   301   291   292     1  0.0000000000      0.5439200000       3
     299   301   291   293     1  0.0000000000      2.1756800000       3
     291   301   299   297     1  0.0000000000      2.1756800000       3
     302   301   299   297     1  0.0000000000      0.5439200000       3
     303   301   299   297     1  0.0000000000      2.1756800000       3
     291   301   299   300     1  0.0000000000      0.5439200000       3
     302   301   299   300     1  0.0000000000      0.5020800000       3
     303   301   299   300     1  0.0000000000      0.5439200000       3
     291   301   303   295     1  0.0000000000      0.6508444444       3
     291   301   303   304     1  0.0000000000      0.6508444444       3
     291   301   303   305     1  0.0000000000      0.6508444444       3
     299   301   303   304     1  0.0000000000      0.6508444444       3
     299   301   303   305     1  0.0000000000      0.6508444444       3
     302   301   303   295     1  0.0000000000      0.5439200000       3
     302   301   303   304     1  0.0000000000      0.5020800000       3
     302   301   303   305     1  0.0000000000      0.5020800000       3
     291   301   299   5642    1  0.0000000000      0.6508444444       3
     302   301   299   5642    1  0.0000000000      0.6508444444       3
     303   301   299   5642    1  0.0000000000      0.6508444444       3
     5599  5600  5601  5602    1  180.0000000000    15.1670000000      2
     5599  5600  5601  5603    1  180.0000000000    15.1670000000      2
     5622  5600  5601  5602    1  180.0000000000    15.1670000000      2
     5622  5600  5601  5603    1  180.0000000000    15.1670000000      2
     5599  5600  5622  5623    1  180.0000000000    4.1840000000       2
     5599  5600  5622  5657    1  180.0000000000    4.1840000000       2
     5601  5600  5622  5623    1  180.0000000000    4.1840000000       2
     5601  5600  5622  5657    1  180.0000000000    4.1840000000       2
     5637  5642  5643  5644    1  180.0000000000    15.1670000000      2
     5637  5642  5643  297     1  180.0000000000    15.1670000000      2
     5637  5642  299   297     1  180.0000000000    1.0041600000       2
     5643  5642  299   297     1  180.0000000000    1.0041600000       2
     5637  5642  299   300     1  0.0000000000      0.0000000000       1
     5643  5642  299   300     1  0.0000000000      0.0000000000       1
     5637  5642  299   301     1  180.0000000000    1.0041600000       2
     5643  5642  299   301     1  180.0000000000    1.0041600000       2
     5642  5643  5644  5635    1  180.0000000000    15.1670000000      2
     297   5643  5642  299     1  180.0000000000    15.1670000000      2
     5642  5643  297   295     1  180.0000000000    1.0041600000       2
     5644  5643  297   295     1  180.0000000000    1.0041600000       2
     5642  5643  297   298     1  0.0000000000      0.0000000000       1
     5644  5643  297   298     1  0.0000000000      0.0000000000       1
     5642  5643  297   299     1  180.0000000000    1.0041600000       2
     5644  5643  297   299     1  180.0000000000    1.0041600000       2
     5644  5643  5642  299     1  180.0000000000    15.1670000000      2
     5643  5644  5635  5633    1  180.0000000000    15.1670000000      2
     5645  5644  5643  5642    1  180.0000000000    15.1670000000      2
     5635  5644  5645  5646    1  0.0000000000      0.0000000000       2
     5635  5644  5645  5647    1  0.0000000000      0.0000000000       2
     5635  5644  5645  5648    1  0.0000000000      0.0000000000       2
     5635  5644  5643  297     1  180.0000000000    15.1670000000      2
     5645  5644  5643  297     1  180.0000000000    15.1670000000      2
     5646  5645  5644  5643    1  0.0000000000      0.0000000000       2
     5647  5645  5644  5643    1  0.0000000000      0.0000000000       2
     5648  5645  5644  5643    1  0.0000000000      0.0000000000       2
     5642  5637  5636  5649    1  180.0000000000    15.1670000000      2
     5636  5637  5638  5639    1  0.0000000000      0.0000000000       2
     5636  5637  5638  5640    1  0.0000000000      0.0000000000       2
     5636  5637  5638  5641    1  0.0000000000      0.0000000000       2
     5636  5637  5642  5643    1  180.0000000000    15.1670000000      2
     5638  5637  5642  5643    1  180.0000000000    15.1670000000      2
     5636  5637  5642  299     1  180.0000000000    15.1670000000      2
     5638  5637  5642  299     1  180.0000000000    15.1670000000      2
     5594  5623  5624  5625    1  180.0000000000    15.1670000000      2
     5594  5623  5624  5626    1  180.0000000000    15.1670000000      2
     5622  5623  5624  5625    1  180.0000000000    15.1670000000      2
     5622  5623  5624  5626    1  180.0000000000    15.1670000000      2
     4726  4727  4729  4730    1  180.0000000000    15.1670000000      2
     4726  4727  4729  4759    1  180.0000000000    15.1670000000      2
     4728  4727  4729  4730    1  180.0000000000    15.1670000000      2
     4728  4727  4729  4759    1  180.0000000000    15.1670000000      2
     5633  5635  5636  5637    1  180.0000000000    15.1670000000      2
     5633  5635  5636  5649    1  180.0000000000    15.1670000000      2
     5644  5635  5636  5637    1  180.0000000000    15.1670000000      2
     5644  5635  5636  5649    1  180.0000000000    15.1670000000      2
     5633  5635  5644  5645    1  180.0000000000    15.1670000000      2
     5636  5635  5644  5643    1  180.0000000000    15.1670000000      2
     5636  5635  5644  5645    1  180.0000000000    15.1670000000      2
     5635  5636  5637  5638    1  180.0000000000    15.1670000000      2
     5635  5636  5637  5642    1  180.0000000000    15.1670000000      2
     5649  5636  5637  5638    1  180.0000000000    15.1670000000      2
     5635  5636  5649  5633    1  180.0000000000    1.0041600000       2
     5635  5636  5649  5650    1  0.0000000000      0.0000000000       1
     5635  5636  5649  5651    1  180.0000000000    1.0041600000       2
     5637  5636  5649  5633    1  180.0000000000    1.0041600000       2
     5637  5636  5649  5650    1  0.0000000000      0.0000000000       1
     5637  5636  5649  5651    1  180.0000000000    1.0041600000       2
     5590  5594  5595  5596    1  0.0000000000      0.5439200000       3
     5590  5594  5595  5597    1  0.0000000000      0.5439200000       3
     5590  5594  5595  5598    1  0.0000000000      0.5439200000       3
     5599  5594  5595  5596    1  0.0000000000      0.6508444444       3
     5599  5594  5595  5597    1  0.0000000000      0.6508444444       3
     5599  5594  5595  5598    1  0.0000000000      0.6508444444       3
     5623  5594  5595  5596    1  0.0000000000      0.6508444444       3
     5623  5594  5595  5597    1  0.0000000000      0.6508444444       3
     5623  5594  5595  5598    1  0.0000000000      0.6508444444       3
     5590  5594  5599  5600    1  0.0000000000      0.0000000000       2
     5590  5594  5599  5620    1  180.0000000000    1.0041600000       2
     5595  5594  5599  5600    1  0.0000000000      0.0000000000       2
     5595  5594  5599  5620    1  180.0000000000    1.0041600000       2
     5623  5594  5599  5600    1  0.0000000000      0.0000000000       2
     5623  5594  5599  5620    1  180.0000000000    0.0000000000       2
     5590  5594  5623  5622    1  0.0000000000      0.0000000000       2
     5590  5594  5623  5624    1  180.0000000000    1.0041600000       2
     5595  5594  5623  5622    1  0.0000000000      0.0000000000       2
     5595  5594  5623  5624    1  180.0000000000    1.0041600000       2
     5599  5594  5623  5622    1  0.0000000000      0.0000000000       2
     5599  5594  5623  5624    1  180.0000000000    0.0000000000       2
     5600  5622  5623  5594    1  180.0000000000    15.1670000000      2
     5600  5622  5623  5624    1  180.0000000000    15.1670000000      2
     5657  5622  5623  5594    1  180.0000000000    15.1670000000      2
     5657  5622  5623  5624    1  180.0000000000    15.1670000000      2
     5600  5622  5657  5656    1  180.0000000000    15.1670000000      2
     5600  5622  5657  5658    1  180.0000000000    15.1670000000      2
     5623  5622  5657  5656    1  180.0000000000    15.1670000000      2
     5623  5622  5657  5658    1  180.0000000000    15.1670000000      2
     5623  5624  5626  5627    1  180.0000000000    15.1670000000      2
     5623  5624  5626  5656    1  180.0000000000    15.1670000000      2
     5625  5624  5626  5627    1  180.0000000000    15.1670000000      2
     5625  5624  5626  5656    1  180.0000000000    15.1670000000      2
     5626  5627  5629  5630    1  0.0000000000      0.6508444444       3
     5626  5627  5629  5631    1  0.0000000000      0.6508444444       3
     5626  5627  5629  5656    1  0.0000000000      0.6508444444       3
     5628  5627  5629  5630    1  0.0000000000      0.6508444444       3
     5628  5627  5629  5631    1  0.0000000000      0.6508444444       3
     5628  5627  5629  5656    1  0.0000000000      0.6508444444       3
     5651  5627  5629  5630    1  0.0000000000      0.6508444444       3
     5651  5627  5629  5631    1  0.0000000000      0.6508444444       3
     5651  5627  5629  5656    1  0.0000000000      0.6508444444       3
     5626  5627  5651  5649    1  0.0000000000      0.6508444444       3
     5626  5627  5651  5652    1  0.0000000000      0.6508444444       3
     5626  5627  5651  5653    1  0.0000000000      0.6508444444       3
     5628  5627  5651  5649    1  0.0000000000      0.5439200000       3
     5628  5627  5651  5652    1  0.0000000000      0.5020800000       3
     5628  5627  5651  5653    1  0.0000000000      0.5439200000       3
     5629  5627  5651  5649    1  0.0000000000      2.1756800000       3
     5629  5627  5651  5652    1  0.0000000000      0.5439200000       3
     5629  5627  5651  5653    1  0.0000000000      2.1756800000       3
     5639  5638  5637  5642    1  0.0000000000      0.0000000000       2
     5640  5638  5637  5642    1  0.0000000000      0.0000000000       2
     5641  5638  5637  5642    1  0.0000000000      0.0000000000       2
     5624  5626  5627  5628    1  0.0000000000      0.0000000000       1
     5624  5626  5627  5629    1  180.0000000000    1.0041600000       2
     5624  5626  5627  5651    1  180.0000000000    1.0041600000       2
     5656  5626  5627  5628    1  0.0000000000      0.0000000000       1
     5656  5626  5627  5629    1  180.0000000000    1.0041600000       2
     5656  5626  5627  5651    1  180.0000000000    1.0041600000       2
     5624  5626  5656  5629    1  180.0000000000    15.1670000000      2
     5624  5626  5656  5657    1  180.0000000000    15.1670000000      2
     5627  5626  5656  5629    1  180.0000000000    15.1670000000      2
     5627  5626  5656  5657    1  180.0000000000    15.1670000000      2
     297   295   293   291     1  0.0000000000      2.1756800000       3
     297   295   293   294     1  0.0000000000      0.5439200000       3
     297   295   293   306     1  0.0000000000      0.6508444444       3
     293   295   297   298     1  0.0000000000      0.5439200000       3
     293   295   297   299     1  0.0000000000      2.1756800000       3
     296   295   297   298     1  0.0000000000      0.5020800000       3
     296   295   297   299     1  0.0000000000      0.5439200000       3
     303   295   297   298     1  0.0000000000      0.5439200000       3
     303   295   297   299     1  0.0000000000      2.1756800000       3
     293   295   303   301     1  0.0000000000      0.6508444444       3
     293   295   303   304     1  0.0000000000      0.6508444444       3
     293   295   303   305     1  0.0000000000      0.6508444444       3
     296   295   303   301     1  0.0000000000      0.5439200000       3
     296   295   303   304     1  0.0000000000      0.5020800000       3
     296   295   303   305     1  0.0000000000      0.5020800000       3
     297   295   303   304     1  0.0000000000      0.6508444444       3
     297   295   303   305     1  0.0000000000      0.6508444444       3
     293   295   297   5643    1  0.0000000000      0.6508444444       3
     296   295   297   5643    1  0.0000000000      0.6508444444       3
     303   295   297   5643    1  0.0000000000      0.6508444444       3
     5626  5656  5657  5622    1  180.0000000000    15.1670000000      2
     5626  5656  5657  5658    1  180.0000000000    15.1670000000      2
     5629  5656  5657  5622    1  180.0000000000    15.1670000000      2
     5629  5656  5657  5658    1  180.0000000000    15.1670000000      2
     290   291   293   294     1  0.0000000000      0.6508444444       3
     290   291   293   295     1  0.0000000000      0.6508444444       3
     290   291   293   306     1  0.0000000000      0.6508444444       3
     292   291   293   294     1  0.0000000000      0.6508444444       3
     292   291   293   295     1  0.0000000000      0.6508444444       3
     292   291   293   306     1  0.0000000000      0.6508444444       3
     301   291   293   294     1  0.0000000000      0.6508444444       3
     301   291   293   295     1  0.0000000000      0.6508444444       3
     301   291   293   306     1  0.0000000000      0.6508444444       3
     290   291   301   302     1  0.0000000000      0.6508444444       3
     290   291   301   303     1  0.0000000000      0.6508444444       3
     292   291   301   302     1  0.0000000000      0.5020800000       3
     292   291   301   303     1  0.0000000000      0.5439200000       3
     293   291   301   302     1  0.0000000000      0.5439200000       3
     293   291   301   303     1  0.0000000000      2.1756800000       3
     301   303   295   297     1  0.0000000000      0.6508444444       3
     295   303   301   299     1  0.0000000000      0.6508444444       3
     291   293   295   296     1  0.0000000000      0.5439200000       3
     291   293   295   303     1  0.0000000000      2.1756800000       3
     294   293   295   296     1  0.0000000000      0.5020800000       3
     294   293   295   303     1  0.0000000000      0.5439200000       3
     306   293   295   296     1  0.0000000000      0.6508444444       3
     306   293   295   303     1  0.0000000000      0.6508444444       3
     291   293   306   290     1  180.0000000000    1.0041600000       2
     291   293   306   307     1  180.0000000000    1.0041600000       2
     294   293   306   290     1  0.0000000000      0.0000000000       1
     294   293   306   307     1  0.0000000000      0.0000000000       1
     295   293   306   290     1  180.0000000000    1.0041600000       2
     295   293   306   307     1  180.0000000000    1.0041600000       2
     5600  5601  5603  5604    1  180.0000000000    15.1670000000      2
     5600  5601  5603  5619    1  180.0000000000    15.1670000000      2
     5602  5601  5603  5604    1  180.0000000000    15.1670000000      2
     5602  5601  5603  5619    1  180.0000000000    15.1670000000      2
     288   290   291   292     1  0.0000000000      0.0000000000       1
     288   290   291   293     1  180.0000000000    1.0041600000       2
     288   290   291   301     1  180.0000000000    1.0041600000       2
     306   290   291   292     1  0.0000000000      0.0000000000       1
     306   290   291   293     1  180.0000000000    1.0041600000       2
     306   290   291   301     1  180.0000000000    1.0041600000       2
     288   290   306   293     1  180.0000000000    15.1670000000      2
     288   290   306   307     1  180.0000000000    15.1670000000      2
     291   290   306   293     1  180.0000000000    15.1670000000      2
     291   290   306   307     1  180.0000000000    15.1670000000      2
     5594  5599  5600  5601    1  180.0000000000    15.1670000000      2
     5594  5599  5600  5622    1  180.0000000000    15.1670000000      2
     5620  5599  5600  5601    1  180.0000000000    15.1670000000      2
     5620  5599  5600  5622    1  180.0000000000    15.1670000000      2
     5594  5599  5620  5619    1  180.0000000000    15.1670000000      2
     5594  5599  5620  5621    1  180.0000000000    15.1670000000      2
     5600  5599  5620  5619    1  180.0000000000    15.1670000000      2
     5600  5599  5620  5621    1  180.0000000000    15.1670000000      2
     5627  5629  5631  5632    1  0.0000000000      0.5439200000       3
     5627  5629  5631  5633    1  0.0000000000      2.1756800000       3
     5627  5629  5631  5653    1  0.0000000000      2.1756800000       3
     5630  5629  5631  5632    1  0.0000000000      0.5020800000       3
     5630  5629  5631  5633    1  0.0000000000      0.5439200000       3
     5630  5629  5631  5653    1  0.0000000000      0.5439200000       3
     5656  5629  5631  5632    1  0.0000000000      0.6508444444       3
     5656  5629  5631  5633    1  0.0000000000      0.6508444444       3
     5656  5629  5631  5653    1  0.0000000000      0.6508444444       3
     5627  5629  5656  5626    1  180.0000000000    1.0041600000       2
     5627  5629  5656  5657    1  180.0000000000    1.0041600000       2
     5630  5629  5656  5626    1  0.0000000000      0.0000000000       1
     5630  5629  5656  5657    1  0.0000000000      0.0000000000       1
     5631  5629  5656  5626    1  180.0000000000    1.0041600000       2
     5631  5629  5656  5657    1  180.0000000000    1.0041600000       2
     290   306   307   286     1  180.0000000000    15.1670000000      2
     290   306   307   308     1  180.0000000000    15.1670000000      2
     293   306   307   286     1  180.0000000000    15.1670000000      2
     293   306   307   308     1  180.0000000000    15.1670000000      2
     4742  4741  4740  4745    1  0.0000000000      0.0000000000       2
     4743  4741  4740  4745    1  0.0000000000      0.0000000000       2
     4744  4741  4740  4745    1  0.0000000000      0.0000000000       2
     398   399   400   391     1  180.0000000000    15.1670000000      2
     398   399   400   401     1  180.0000000000    15.1670000000      2
     4697  4726  4727  4728    1  180.0000000000    15.1670000000      2
     4697  4726  4727  4729    1  180.0000000000    15.1670000000      2
     4725  4726  4727  4728    1  180.0000000000    15.1670000000      2
     4725  4726  4727  4729    1  180.0000000000    15.1670000000      2
     4727  4729  4730  4731    1  0.0000000000      0.0000000000       1
     4727  4729  4730  4732    1  180.0000000000    1.0041600000       2
     4727  4729  4730  4754    1  180.0000000000    1.0041600000       2
     4759  4729  4730  4731    1  0.0000000000      0.0000000000       1
     4759  4729  4730  4732    1  180.0000000000    1.0041600000       2
     4759  4729  4730  4754    1  180.0000000000    1.0041600000       2
     4727  4729  4759  4732    1  180.0000000000    15.1670000000      2
     4727  4729  4759  4760    1  180.0000000000    15.1670000000      2
     4730  4729  4759  4732    1  180.0000000000    15.1670000000      2
     4730  4729  4759  4760    1  180.0000000000    15.1670000000      2
     5591  5590  5594  5595    1  0.0000000000      0.5439200000       3
     5591  5590  5594  5599    1  0.0000000000      0.6508444444       3
     5591  5590  5594  5623    1  0.0000000000      0.6508444444       3
     5592  5590  5594  5595    1  0.0000000000      0.5439200000       3
     5592  5590  5594  5599    1  0.0000000000      0.6508444444       3
     5592  5590  5594  5623    1  0.0000000000      0.6508444444       3
     5593  5590  5594  5595    1  0.0000000000      0.5439200000       3
     5593  5590  5594  5599    1  0.0000000000      0.6508444444       3
     5593  5590  5594  5623    1  0.0000000000      0.6508444444       3
     902   931   932   933     1  180.0000000000    15.1670000000      2
     902   931   932   934     1  180.0000000000    15.1670000000      2
     930   931   932   933     1  180.0000000000    15.1670000000      2
     930   931   932   934     1  180.0000000000    15.1670000000      2
     931   932   934   935     1  180.0000000000    15.1670000000      2
     931   932   934   964     1  180.0000000000    15.1670000000      2
     933   932   934   935     1  180.0000000000    15.1670000000      2
     933   932   934   964     1  180.0000000000    15.1670000000      2
     898   902   903   904     1  0.0000000000      0.5439200000       3
     898   902   903   905     1  0.0000000000      0.5439200000       3
     898   902   903   906     1  0.0000000000      0.5439200000       3
     907   902   903   904     1  0.0000000000      0.6508444444       3
     907   902   903   905     1  0.0000000000      0.6508444444       3
     907   902   903   906     1  0.0000000000      0.6508444444       3
     931   902   903   904     1  0.0000000000      0.6508444444       3
     931   902   903   905     1  0.0000000000      0.6508444444       3
     931   902   903   906     1  0.0000000000      0.6508444444       3
     898   902   907   908     1  0.0000000000      0.0000000000       2
     898   902   907   928     1  180.0000000000    1.0041600000       2
     903   902   907   908     1  0.0000000000      0.0000000000       2
     903   902   907   928     1  180.0000000000    1.0041600000       2
     931   902   907   908     1  0.0000000000      0.0000000000       2
     931   902   907   928     1  180.0000000000    0.0000000000       2
     898   902   931   930     1  0.0000000000      0.0000000000       2
     898   902   931   932     1  180.0000000000    1.0041600000       2
     903   902   931   930     1  0.0000000000      0.0000000000       2
     903   902   931   932     1  180.0000000000    1.0041600000       2
     907   902   931   930     1  0.0000000000      0.0000000000       2
     907   902   931   932     1  180.0000000000    0.0000000000       2
     4738  4739  4740  4741    1  180.0000000000    15.1670000000      2
     4738  4739  4740  4745    1  180.0000000000    15.1670000000      2
     4752  4739  4740  4741    1  180.0000000000    15.1670000000      2
     4738  4739  4752  4736    1  180.0000000000    1.0041600000       2
     4738  4739  4752  4753    1  0.0000000000      0.0000000000       1
     4738  4739  4752  4754    1  180.0000000000    1.0041600000       2
     4740  4739  4752  4736    1  180.0000000000    1.0041600000       2
     4740  4739  4752  4753    1  0.0000000000      0.0000000000       1
     4740  4739  4752  4754    1  180.0000000000    1.0041600000       2
     4703  4725  4726  4697    1  180.0000000000    15.1670000000      2
     4703  4725  4726  4727    1  180.0000000000    15.1670000000      2
     4760  4725  4726  4697    1  180.0000000000    15.1670000000      2
     4760  4725  4726  4727    1  180.0000000000    15.1670000000      2
     4703  4725  4760  4759    1  180.0000000000    15.1670000000      2
     4703  4725  4760  4761    1  180.0000000000    15.1670000000      2
     4726  4725  4760  4759    1  180.0000000000    15.1670000000      2
     4726  4725  4760  4761    1  180.0000000000    15.1670000000      2
     4745  4740  4739  4752    1  180.0000000000    15.1670000000      2
     4739  4740  4741  4742    1  0.0000000000      0.0000000000       2
     4739  4740  4741  4743    1  0.0000000000      0.0000000000       2
     4739  4740  4741  4744    1  0.0000000000      0.0000000000       2
     4739  4740  4745  4746    1  180.0000000000    15.1670000000      2
     4741  4740  4745  4746    1  180.0000000000    15.1670000000      2
     4739  4740  4745  5543    1  180.0000000000    15.1670000000      2
     4741  4740  4745  5543    1  180.0000000000    15.1670000000      2
     5631  5633  5635  5636    1  180.0000000000    1.0041600000       2
     5631  5633  5635  5644    1  180.0000000000    1.0041600000       2
     5634  5633  5635  5636    1  0.0000000000      0.0000000000       1
     5634  5633  5635  5644    1  0.0000000000      0.0000000000       1
     5649  5633  5635  5636    1  180.0000000000    1.0041600000       2
     5649  5633  5635  5644    1  180.0000000000    1.0041600000       2
     5631  5633  5649  5636    1  0.0000000000      0.6508444444       3
     5631  5633  5649  5650    1  0.0000000000      0.6508444444       3
     5631  5633  5649  5651    1  0.0000000000      0.6508444444       3
     5634  5633  5649  5636    1  0.0000000000      0.6508444444       3
     5634  5633  5649  5650    1  0.0000000000      0.6508444444       3
     5634  5633  5649  5651    1  0.0000000000      0.6508444444       3
     5635  5633  5649  5636    1  0.0000000000      0.6508444444       3
     5635  5633  5649  5650    1  0.0000000000      0.6508444444       3
     5635  5633  5649  5651    1  0.0000000000      0.6508444444       3
     4729  4730  4732  4733    1  0.0000000000      0.6508444444       3
     4729  4730  4732  4734    1  0.0000000000      0.6508444444       3
     4729  4730  4732  4759    1  0.0000000000      0.6508444444       3
     4731  4730  4732  4733    1  0.0000000000      0.6508444444       3
     4731  4730  4732  4734    1  0.0000000000      0.6508444444       3
     4731  4730  4732  4759    1  0.0000000000      0.6508444444       3
     4754  4730  4732  4733    1  0.0000000000      0.6508444444       3
     4754  4730  4732  4734    1  0.0000000000      0.6508444444       3
     4754  4730  4732  4759    1  0.0000000000      0.6508444444       3
     4729  4730  4754  4752    1  0.0000000000      0.6508444444       3
     4729  4730  4754  4755    1  0.0000000000      0.6508444444       3
     4729  4730  4754  4756    1  0.0000000000      0.6508444444       3
     4731  4730  4754  4752    1  0.0000000000      0.5439200000       3
     4731  4730  4754  4755    1  0.0000000000      0.5020800000       3
     4731  4730  4754  4756    1  0.0000000000      0.5439200000       3
     4732  4730  4754  4752    1  0.0000000000      2.1756800000       3
     4732  4730  4754  4755    1  0.0000000000      0.5439200000       3
     4732  4730  4754  4756    1  0.0000000000      2.1756800000       3
     4736  4752  4754  4730    1  0.0000000000      2.1756800000       3
     4736  4752  4754  4755    1  0.0000000000      0.5439200000       3
     4736  4752  4754  4756    1  0.0000000000      2.1756800000       3
     4739  4752  4754  4730    1  0.0000000000      0.6508444444       3
     4739  4752  4754  4755    1  0.0000000000      0.6508444444       3
     4739  4752  4754  4756    1  0.0000000000      0.6508444444       3
     4753  4752  4754  4730    1  0.0000000000      0.5439200000       3
     4753  4752  4754  4755    1  0.0000000000      0.5020800000       3
     4753  4752  4754  4756    1  0.0000000000      0.5439200000       3
     287   288   290   291     1  180.0000000000    15.1670000000      2
     287   288   290   306     1  180.0000000000    15.1670000000      2
     289   288   290   291     1  180.0000000000    15.1670000000      2
     289   288   290   306     1  180.0000000000    15.1670000000      2
     4730  4754  4756  4734    1  0.0000000000      0.6508444444       3
     4730  4754  4756  4757    1  0.0000000000      0.6508444444       3
     4730  4754  4756  4758    1  0.0000000000      0.6508444444       3
     4752  4754  4756  4734    1  0.0000000000      0.6508444444       3
     4752  4754  4756  4757    1  0.0000000000      0.6508444444       3
     4752  4754  4756  4758    1  0.0000000000      0.6508444444       3
     4755  4754  4756  4734    1  0.0000000000      0.5439200000       3
     4755  4754  4756  4757    1  0.0000000000      0.5020800000       3
     4755  4754  4756  4758    1  0.0000000000      0.5020800000       3
     5629  5631  5633  5634    1  0.0000000000      0.5439200000       3
     5629  5631  5633  5635    1  0.0000000000      0.6508444444       3
     5629  5631  5633  5649    1  0.0000000000      2.1756800000       3
     5632  5631  5633  5634    1  0.0000000000      0.5020800000       3
     5632  5631  5633  5635    1  0.0000000000      0.6508444444       3
     5632  5631  5633  5649    1  0.0000000000      0.5439200000       3
     5653  5631  5633  5634    1  0.0000000000      0.5439200000       3
     5653  5631  5633  5635    1  0.0000000000      0.6508444444       3
     5653  5631  5633  5649    1  0.0000000000      2.1756800000       3
     5629  5631  5653  5651    1  0.0000000000      0.6508444444       3
     5629  5631  5653  5654    1  0.0000000000      0.6508444444       3
     5629  5631  5653  5655    1  0.0000000000      0.6508444444       3
     5632  5631  5653  5651    1  0.0000000000      0.5439200000       3
     5632  5631  5653  5654    1  0.0000000000      0.5020800000       3
     5632  5631  5653  5655    1  0.0000000000      0.5020800000       3
     5633  5631  5653  5651    1  0.0000000000      0.6508444444       3
     5633  5631  5653  5654    1  0.0000000000      0.6508444444       3
     5633  5631  5653  5655    1  0.0000000000      0.6508444444       3
     5633  5649  5651  5627    1  0.0000000000      2.1756800000       3
     5633  5649  5651  5652    1  0.0000000000      0.5439200000       3
     5633  5649  5651  5653    1  0.0000000000      2.1756800000       3
     5636  5649  5651  5627    1  0.0000000000      0.6508444444       3
     5636  5649  5651  5652    1  0.0000000000      0.6508444444       3
     5636  5649  5651  5653    1  0.0000000000      0.6508444444       3
     5650  5649  5651  5627    1  0.0000000000      0.5439200000       3
     5650  5649  5651  5652    1  0.0000000000      0.5020800000       3
     5650  5649  5651  5653    1  0.0000000000      0.5439200000       3
     5577  5576  5575  5574    1  0.0000000000      0.0000000000       2
     5578  5576  5575  5574    1  0.0000000000      0.0000000000       2
     5579  5576  5575  5574    1  0.0000000000      0.0000000000       2
     6467  6466  6465  6470    1  0.0000000000      0.0000000000       2
     6468  6466  6465  6470    1  0.0000000000      0.0000000000       2
     6469  6466  6465  6470    1  0.0000000000      0.0000000000       2
     4706  4722  4723  4702    1  180.0000000000    15.1670000000      2
     4706  4722  4723  4724    1  180.0000000000    15.1670000000      2
     4709  4722  4723  4702    1  180.0000000000    15.1670000000      2
     4709  4722  4723  4724    1  180.0000000000    15.1670000000      2
     5555  5557  5558  5559    1  0.0000000000      0.0000000000       1
     5555  5557  5558  5560    1  180.0000000000    1.0041600000       2
     5555  5557  5558  5582    1  180.0000000000    1.0041600000       2
     5587  5557  5558  5559    1  0.0000000000      0.0000000000       1
     5587  5557  5558  5560    1  180.0000000000    1.0041600000       2
     5587  5557  5558  5582    1  180.0000000000    1.0041600000       2
     5555  5557  5587  5560    1  180.0000000000    15.1670000000      2
     5555  5557  5587  5588    1  180.0000000000    15.1670000000      2
     5558  5557  5587  5560    1  180.0000000000    15.1670000000      2
     5558  5557  5587  5588    1  180.0000000000    15.1670000000      2
     916   924   922   920     1  0.0000000000      0.6508444444       3
     922   924   916   918     1  0.0000000000      0.6508444444       3
     5338  5336  5334  5335    1  0.0000000000      0.6508444444       3
     5338  5336  5334  1019    1  0.0000000000      0.6508444444       3
     1020  5336  5334  5335    1  0.0000000000      0.6508444444       3
     918   916   914   912     1  0.0000000000      2.1756800000       3
     918   916   914   915     1  0.0000000000      0.5439200000       3
     918   916   914   927     1  0.0000000000      0.6508444444       3
     914   916   918   919     1  0.0000000000      0.5439200000       3
     914   916   918   920     1  0.0000000000      2.1756800000       3
     917   916   918   919     1  0.0000000000      0.5020800000       3
     917   916   918   920     1  0.0000000000      0.5439200000       3
     924   916   918   919     1  0.0000000000      0.5439200000       3
     924   916   918   920     1  0.0000000000      2.1756800000       3
     914   916   924   922     1  0.0000000000      0.6508444444       3
     914   916   924   925     1  0.0000000000      0.6508444444       3
     914   916   924   926     1  0.0000000000      0.6508444444       3
     917   916   924   922     1  0.0000000000      0.5439200000       3
     917   916   924   925     1  0.0000000000      0.5020800000       3
     917   916   924   926     1  0.0000000000      0.5020800000       3
     918   916   924   925     1  0.0000000000      0.6508444444       3
     918   916   924   926     1  0.0000000000      0.6508444444       3
     914   916   918   53      1  0.0000000000      0.6508444444       3
     917   916   918   53      1  0.0000000000      0.6508444444       3
     924   916   918   53      1  0.0000000000      0.6508444444       3
     5564  5580  5582  5558    1  0.0000000000      2.1756800000       3
     5564  5580  5582  5583    1  0.0000000000      0.5439200000       3
     5564  5580  5582  5584    1  0.0000000000      2.1756800000       3
     5567  5580  5582  5558    1  0.0000000000      0.6508444444       3
     5567  5580  5582  5583    1  0.0000000000      0.6508444444       3
     5567  5580  5582  5584    1  0.0000000000      0.6508444444       3
     5581  5580  5582  5558    1  0.0000000000      0.5439200000       3
     5581  5580  5582  5583    1  0.0000000000      0.5020800000       3
     5581  5580  5582  5584    1  0.0000000000      0.5439200000       3
     4702  4703  4704  4705    1  180.0000000000    15.1670000000      2
     4702  4703  4704  4706    1  180.0000000000    15.1670000000      2
     4725  4703  4704  4705    1  180.0000000000    15.1670000000      2
     4725  4703  4704  4706    1  180.0000000000    15.1670000000      2
     4702  4703  4725  4726    1  180.0000000000    4.1840000000       2
     4702  4703  4725  4760    1  180.0000000000    4.1840000000       2
     4704  4703  4725  4726    1  180.0000000000    4.1840000000       2
     4704  4703  4725  4760    1  180.0000000000    4.1840000000       2
     5531  5553  5554  5525    1  180.0000000000    15.1670000000      2
     5531  5553  5554  5555    1  180.0000000000    15.1670000000      2
     5588  5553  5554  5525    1  180.0000000000    15.1670000000      2
     5588  5553  5554  5555    1  180.0000000000    15.1670000000      2
     5531  5553  5588  5587    1  180.0000000000    15.1670000000      2
     5531  5553  5588  5589    1  180.0000000000    15.1670000000      2
     5554  5553  5588  5587    1  180.0000000000    15.1670000000      2
     5554  5553  5588  5589    1  180.0000000000    15.1670000000      2
     5560  5562  5564  5565    1  0.0000000000      0.5439200000       3
     5560  5562  5564  5566    1  0.0000000000      0.6508444444       3
     5560  5562  5564  5580    1  0.0000000000      2.1756800000       3
     5563  5562  5564  5565    1  0.0000000000      0.5020800000       3
     5563  5562  5564  5566    1  0.0000000000      0.6508444444       3
     5563  5562  5564  5580    1  0.0000000000      0.5439200000       3
     5584  5562  5564  5565    1  0.0000000000      0.5439200000       3
     5584  5562  5564  5566    1  0.0000000000      0.6508444444       3
     5584  5562  5564  5580    1  0.0000000000      2.1756800000       3
     5560  5562  5584  5582    1  0.0000000000      0.6508444444       3
     5560  5562  5584  5585    1  0.0000000000      0.6508444444       3
     5560  5562  5584  5586    1  0.0000000000      0.6508444444       3
     5563  5562  5584  5582    1  0.0000000000      0.5439200000       3
     5563  5562  5584  5585    1  0.0000000000      0.5020800000       3
     5563  5562  5584  5586    1  0.0000000000      0.5020800000       3
     5564  5562  5584  5582    1  0.0000000000      0.6508444444       3
     5564  5562  5584  5585    1  0.0000000000      0.6508444444       3
     5564  5562  5584  5586    1  0.0000000000      0.6508444444       3
     5554  5555  5557  5558    1  180.0000000000    15.1670000000      2
     5554  5555  5557  5587    1  180.0000000000    15.1670000000      2
     5556  5555  5557  5558    1  180.0000000000    15.1670000000      2
     5556  5555  5557  5587    1  180.0000000000    15.1670000000      2
     4707  4709  4711  4712    1  0.0000000000      0.5439200000       3
     4707  4709  4711  4719    1  0.0000000000      2.1756800000       3
     4710  4709  4711  4712    1  0.0000000000      0.5020800000       3
     4710  4709  4711  4719    1  0.0000000000      0.5439200000       3
     4722  4709  4711  4712    1  0.0000000000      0.6508444444       3
     4722  4709  4711  4719    1  0.0000000000      0.6508444444       3
     4707  4709  4722  4706    1  180.0000000000    1.0041600000       2
     4707  4709  4722  4723    1  180.0000000000    1.0041600000       2
     4710  4709  4722  4706    1  0.0000000000      0.0000000000       1
     4710  4709  4722  4723    1  0.0000000000      0.0000000000       1
     4711  4709  4722  4706    1  180.0000000000    1.0041600000       2
     4711  4709  4722  4723    1  180.0000000000    1.0041600000       2
     5558  5560  5562  5563    1  0.0000000000      0.5439200000       3
     5558  5560  5562  5564    1  0.0000000000      2.1756800000       3
     5558  5560  5562  5584    1  0.0000000000      2.1756800000       3
     5561  5560  5562  5563    1  0.0000000000      0.5020800000       3
     5561  5560  5562  5564    1  0.0000000000      0.5439200000       3
     5561  5560  5562  5584    1  0.0000000000      0.5439200000       3
     5587  5560  5562  5563    1  0.0000000000      0.6508444444       3
     5587  5560  5562  5564    1  0.0000000000      0.6508444444       3
     5587  5560  5562  5584    1  0.0000000000      0.6508444444       3
     5558  5560  5587  5557    1  180.0000000000    1.0041600000       2
     5558  5560  5587  5588    1  180.0000000000    1.0041600000       2
     5561  5560  5587  5557    1  0.0000000000      0.0000000000       1
     5561  5560  5587  5588    1  0.0000000000      0.0000000000       1
     5562  5560  5587  5557    1  180.0000000000    1.0041600000       2
     5562  5560  5587  5588    1  180.0000000000    1.0041600000       2
     5557  5558  5560  5561    1  0.0000000000      0.6508444444       3
     5557  5558  5560  5562    1  0.0000000000      0.6508444444       3
     5557  5558  5560  5587    1  0.0000000000      0.6508444444       3
     5559  5558  5560  5561    1  0.0000000000      0.6508444444       3
     5559  5558  5560  5562    1  0.0000000000      0.6508444444       3
     5559  5558  5560  5587    1  0.0000000000      0.6508444444       3
     5582  5558  5560  5561    1  0.0000000000      0.6508444444       3
     5582  5558  5560  5562    1  0.0000000000      0.6508444444       3
     5582  5558  5560  5587    1  0.0000000000      0.6508444444       3
     5557  5558  5582  5580    1  0.0000000000      0.6508444444       3
     5557  5558  5582  5583    1  0.0000000000      0.6508444444       3
     5557  5558  5582  5584    1  0.0000000000      0.6508444444       3
     5559  5558  5582  5580    1  0.0000000000      0.5439200000       3
     5559  5558  5582  5583    1  0.0000000000      0.5020800000       3
     5559  5558  5582  5584    1  0.0000000000      0.5439200000       3
     5560  5558  5582  5580    1  0.0000000000      2.1756800000       3
     5560  5558  5582  5583    1  0.0000000000      0.5439200000       3
     5560  5558  5582  5584    1  0.0000000000      2.1756800000       3
     5627  5651  5653  5631    1  0.0000000000      0.6508444444       3
     5627  5651  5653  5654    1  0.0000000000      0.6508444444       3
     5627  5651  5653  5655    1  0.0000000000      0.6508444444       3
     5649  5651  5653  5631    1  0.0000000000      0.6508444444       3
     5649  5651  5653  5654    1  0.0000000000      0.6508444444       3
     5649  5651  5653  5655    1  0.0000000000      0.6508444444       3
     5652  5651  5653  5631    1  0.0000000000      0.5439200000       3
     5652  5651  5653  5654    1  0.0000000000      0.5020800000       3
     5652  5651  5653  5655    1  0.0000000000      0.5020800000       3
     902   907   908   909     1  180.0000000000    15.1670000000      2
     902   907   908   930     1  180.0000000000    15.1670000000      2
     928   907   908   909     1  180.0000000000    15.1670000000      2
     928   907   908   930     1  180.0000000000    15.1670000000      2
     902   907   928   927     1  180.0000000000    15.1670000000      2
     902   907   928   929     1  180.0000000000    15.1670000000      2
     908   907   928   927     1  180.0000000000    15.1670000000      2
     908   907   928   929     1  180.0000000000    15.1670000000      2
     5557  5587  5588  5553    1  180.0000000000    15.1670000000      2
     5557  5587  5588  5589    1  180.0000000000    15.1670000000      2
     5560  5587  5588  5553    1  180.0000000000    15.1670000000      2
     5560  5587  5588  5589    1  180.0000000000    15.1670000000      2
     4713  4711  4709  4707    1  0.0000000000      2.1756800000       3
     4713  4711  4709  4710    1  0.0000000000      0.5439200000       3
     4713  4711  4709  4722    1  0.0000000000      0.6508444444       3
     4709  4711  4713  4714    1  0.0000000000      0.5439200000       3
     4709  4711  4713  4715    1  0.0000000000      2.1756800000       3
     4712  4711  4713  4714    1  0.0000000000      0.5020800000       3
     4712  4711  4713  4715    1  0.0000000000      0.5439200000       3
     4719  4711  4713  4714    1  0.0000000000      0.5439200000       3
     4719  4711  4713  4715    1  0.0000000000      2.1756800000       3
     4709  4711  4719  4717    1  0.0000000000      0.6508444444       3
     4709  4711  4719  4720    1  0.0000000000      0.6508444444       3
     4709  4711  4719  4721    1  0.0000000000      0.6508444444       3
     4712  4711  4719  4717    1  0.0000000000      0.5439200000       3
     4712  4711  4719  4720    1  0.0000000000      0.5020800000       3
     4712  4711  4719  4721    1  0.0000000000      0.5020800000       3
     4713  4711  4719  4720    1  0.0000000000      0.6508444444       3
     4713  4711  4719  4721    1  0.0000000000      0.6508444444       3
     4709  4711  4713  6747    1  0.0000000000      0.6508444444       3
     4712  4711  4713  6747    1  0.0000000000      0.6508444444       3
     4719  4711  4713  6747    1  0.0000000000      0.6508444444       3
     1014  1019  1020  1021    1  180.0000000000    15.1670000000      2
     5334  1019  1020  5336    1  180.0000000000    15.1670000000      2
     1014  1019  5334  5332    1  180.0000000000    1.0041600000       2
     1020  1019  5334  5332    1  180.0000000000    1.0041600000       2
     1014  1019  5334  5335    1  0.0000000000      0.0000000000       1
     1020  1019  5334  5335    1  0.0000000000      0.0000000000       1
     1014  1019  5334  5336    1  180.0000000000    1.0041600000       2
     1020  1019  5334  5336    1  180.0000000000    1.0041600000       2
     1014  1019  1020  5336    1  180.0000000000    15.1670000000      2
     5338  5340  5332  5334    1  0.0000000000      0.6508444444       3
     5332  5340  5338  5336    1  0.0000000000      0.6508444444       3
     5573  5568  5567  5580    1  180.0000000000    15.1670000000      2
     5567  5568  5569  5570    1  0.0000000000      0.0000000000       2
     5567  5568  5569  5571    1  0.0000000000      0.0000000000       2
     5567  5568  5569  5572    1  0.0000000000      0.0000000000       2
     5567  5568  5573  5574    1  180.0000000000    15.1670000000      2
     5569  5568  5573  5574    1  180.0000000000    15.1670000000      2
     5567  5568  5573  1334    1  180.0000000000    15.1670000000      2
     5569  5568  5573  1334    1  180.0000000000    15.1670000000      2
     4694  4693  4697  4698    1  0.0000000000      0.5439200000       3
     4694  4693  4697  4702    1  0.0000000000      0.6508444444       3
     4694  4693  4697  4726    1  0.0000000000      0.6508444444       3
     4695  4693  4697  4698    1  0.0000000000      0.5439200000       3
     4695  4693  4697  4702    1  0.0000000000      0.6508444444       3
     4695  4693  4697  4726    1  0.0000000000      0.6508444444       3
     4696  4693  4697  4698    1  0.0000000000      0.5439200000       3
     4696  4693  4697  4702    1  0.0000000000      0.6508444444       3
     4696  4693  4697  4726    1  0.0000000000      0.6508444444       3
     5334  5332  5330  5328    1  0.0000000000      2.1756800000       3
     5334  5332  5330  5331    1  0.0000000000      0.5439200000       3
     5334  5332  5330  5343    1  0.0000000000      0.6508444444       3
     5330  5332  5334  5335    1  0.0000000000      0.5439200000       3
     5330  5332  5334  5336    1  0.0000000000      2.1756800000       3
     5333  5332  5334  5335    1  0.0000000000      0.5020800000       3
     5333  5332  5334  5336    1  0.0000000000      0.5439200000       3
     5340  5332  5334  5335    1  0.0000000000      0.5439200000       3
     5340  5332  5334  5336    1  0.0000000000      2.1756800000       3
     5330  5332  5340  5338    1  0.0000000000      0.6508444444       3
     5330  5332  5340  5341    1  0.0000000000      0.6508444444       3
     5330  5332  5340  5342    1  0.0000000000      0.6508444444       3
     5333  5332  5340  5338    1  0.0000000000      0.5439200000       3
     5333  5332  5340  5341    1  0.0000000000      0.5020800000       3
     5333  5332  5340  5342    1  0.0000000000      0.5020800000       3
     5334  5332  5340  5341    1  0.0000000000      0.6508444444       3
     5334  5332  5340  5342    1  0.0000000000      0.6508444444       3
     5330  5332  5334  1019    1  0.0000000000      0.6508444444       3
     5333  5332  5334  1019    1  0.0000000000      0.6508444444       3
     5340  5332  5334  1019    1  0.0000000000      0.6508444444       3
     5332  5334  5336  5337    1  0.0000000000      0.6508444444       3
     5332  5334  5336  5338    1  0.0000000000      0.6508444444       3
     5335  5334  5336  5337    1  0.0000000000      0.6508444444       3
     1019  5334  5336  5337    1  0.0000000000      0.6508444444       3
     1019  5334  5336  1020    1  0.0000000000      0.6508444444       3
     5332  5334  5336  1020    1  0.0000000000      0.6508444444       3
     5558  5582  5584  5562    1  0.0000000000      0.6508444444       3
     5558  5582  5584  5585    1  0.0000000000      0.6508444444       3
     5558  5582  5584  5586    1  0.0000000000      0.6508444444       3
     5580  5582  5584  5562    1  0.0000000000      0.6508444444       3
     5580  5582  5584  5585    1  0.0000000000      0.6508444444       3
     5580  5582  5584  5586    1  0.0000000000      0.6508444444       3
     5583  5582  5584  5562    1  0.0000000000      0.5439200000       3
     5583  5582  5584  5585    1  0.0000000000      0.5020800000       3
     5583  5582  5584  5586    1  0.0000000000      0.5020800000       3
     4693  4697  4698  4699    1  0.0000000000      0.5439200000       3
     4693  4697  4698  4700    1  0.0000000000      0.5439200000       3
     4693  4697  4698  4701    1  0.0000000000      0.5439200000       3
     4702  4697  4698  4699    1  0.0000000000      0.6508444444       3
     4702  4697  4698  4700    1  0.0000000000      0.6508444444       3
     4702  4697  4698  4701    1  0.0000000000      0.6508444444       3
     4726  4697  4698  4699    1  0.0000000000      0.6508444444       3
     4726  4697  4698  4700    1  0.0000000000      0.6508444444       3
     4726  4697  4698  4701    1  0.0000000000      0.6508444444       3
     4693  4697  4702  4703    1  0.0000000000      0.0000000000       2
     4693  4697  4702  4723    1  180.0000000000    1.0041600000       2
     4698  4697  4702  4703    1  0.0000000000      0.0000000000       2
     4698  4697  4702  4723    1  180.0000000000    1.0041600000       2
     4726  4697  4702  4703    1  0.0000000000      0.0000000000       2
     4726  4697  4702  4723    1  180.0000000000    0.0000000000       2
     4693  4697  4726  4725    1  0.0000000000      0.0000000000       2
     4693  4697  4726  4727    1  180.0000000000    1.0041600000       2
     4698  4697  4726  4725    1  0.0000000000      0.0000000000       2
     4698  4697  4726  4727    1  180.0000000000    1.0041600000       2
     4702  4697  4726  4725    1  0.0000000000      0.0000000000       2
     4702  4697  4726  4727    1  180.0000000000    0.0000000000       2
     5562  5564  5566  5567    1  180.0000000000    1.0041600000       2
     5562  5564  5566  5575    1  180.0000000000    1.0041600000       2
     5565  5564  5566  5567    1  0.0000000000      0.0000000000       1
     5565  5564  5566  5575    1  0.0000000000      0.0000000000       1
     5580  5564  5566  5567    1  180.0000000000    1.0041600000       2
     5580  5564  5566  5575    1  180.0000000000    1.0041600000       2
     5562  5564  5580  5567    1  0.0000000000      0.6508444444       3
     5562  5564  5580  5581    1  0.0000000000      0.6508444444       3
     5562  5564  5580  5582    1  0.0000000000      0.6508444444       3
     5565  5564  5580  5567    1  0.0000000000      0.6508444444       3
     5565  5564  5580  5581    1  0.0000000000      0.6508444444       3
     5565  5564  5580  5582    1  0.0000000000      0.6508444444       3
     5566  5564  5580  5567    1  0.0000000000      0.6508444444       3
     5566  5564  5580  5581    1  0.0000000000      0.6508444444       3
     5566  5564  5580  5582    1  0.0000000000      0.6508444444       3
     5564  5566  5567  5568    1  180.0000000000    15.1670000000      2
     5564  5566  5567  5580    1  180.0000000000    15.1670000000      2
     5575  5566  5567  5568    1  180.0000000000    15.1670000000      2
     5575  5566  5567  5580    1  180.0000000000    15.1670000000      2
     5564  5566  5575  5576    1  180.0000000000    15.1670000000      2
     5567  5566  5575  5574    1  180.0000000000    15.1670000000      2
     5567  5566  5575  5576    1  180.0000000000    15.1670000000      2
     5566  5567  5568  5569    1  180.0000000000    15.1670000000      2
     5566  5567  5568  5573    1  180.0000000000    15.1670000000      2
     5580  5567  5568  5569    1  180.0000000000    15.1670000000      2
     5566  5567  5580  5564    1  180.0000000000    1.0041600000       2
     5566  5567  5580  5581    1  0.0000000000      0.0000000000       1
     5566  5567  5580  5582    1  180.0000000000    1.0041600000       2
     5568  5567  5580  5564    1  180.0000000000    1.0041600000       2
     5568  5567  5580  5581    1  0.0000000000      0.0000000000       1
     5568  5567  5580  5582    1  180.0000000000    1.0041600000       2
     4697  4702  4703  4704    1  180.0000000000    15.1670000000      2
     4697  4702  4703  4725    1  180.0000000000    15.1670000000      2
     4723  4702  4703  4704    1  180.0000000000    15.1670000000      2
     4723  4702  4703  4725    1  180.0000000000    15.1670000000      2
     4697  4702  4723  4722    1  180.0000000000    15.1670000000      2
     4697  4702  4723  4724    1  180.0000000000    15.1670000000      2
     4703  4702  4723  4722    1  180.0000000000    15.1670000000      2
     4703  4702  4723  4724    1  180.0000000000    15.1670000000      2
     5525  5554  5555  5556    1  180.0000000000    15.1670000000      2
     5525  5554  5555  5557    1  180.0000000000    15.1670000000      2
     5553  5554  5555  5556    1  180.0000000000    15.1670000000      2
     5553  5554  5555  5557    1  180.0000000000    15.1670000000      2
     5576  5575  5574  5573    1  180.0000000000    15.1670000000      2
     5566  5575  5576  5577    1  0.0000000000      0.0000000000       2
     5566  5575  5576  5578    1  0.0000000000      0.0000000000       2
     5566  5575  5576  5579    1  0.0000000000      0.0000000000       2
     5574  5575  5566  5564    1  180.0000000000    15.1670000000      2
     5576  5575  5574  1332    1  180.0000000000    15.1670000000      2
     5566  5575  5574  1332    1  180.0000000000    15.1670000000      2
     4027  4029  4021  4023    1  0.0000000000      0.6508444444       3
     4021  4029  4027  4025    1  0.0000000000      0.6508444444       3
     945   950   951   952     1  180.0000000000    15.1670000000      2
     945   950   951   4025    1  180.0000000000    15.1670000000      2
     945   950   4023  4021    1  180.0000000000    1.0041600000       2
     951   950   4023  4021    1  180.0000000000    1.0041600000       2
     945   950   4023  4024    1  0.0000000000      0.0000000000       1
     951   950   4023  4024    1  0.0000000000      0.0000000000       1
     945   950   4023  4025    1  180.0000000000    1.0041600000       2
     951   950   4023  4025    1  180.0000000000    1.0041600000       2
     950   951   952   943     1  180.0000000000    15.1670000000      2
     4025  951   950   4023    1  180.0000000000    15.1670000000      2
     950   951   4025  4023    1  180.0000000000    1.0041600000       2
     952   951   4025  4023    1  180.0000000000    1.0041600000       2
     950   951   4025  4026    1  0.0000000000      0.0000000000       1
     952   951   4025  4026    1  0.0000000000      0.0000000000       1
     950   951   4025  4027    1  180.0000000000    1.0041600000       2
     952   951   4025  4027    1  180.0000000000    1.0041600000       2
     952   951   950   4023    1  180.0000000000    15.1670000000      2
     4027  4025  4023  4024    1  0.0000000000      0.6508444444       3
     951   4025  4023  4024    1  0.0000000000      0.6508444444       3
     951   4025  4023  950     1  0.0000000000      0.6508444444       3
     4027  4025  4023  950     1  0.0000000000      0.6508444444       3
     4025  4027  4017  4016    1  0.0000000000      0.6508444444       3
     4025  4027  4017  4018    1  0.0000000000      0.5439200000       3
     4025  4027  4017  4019    1  0.0000000000      2.1756800000       3
     4017  4027  4025  4023    1  0.0000000000      2.1756800000       3
     4028  4027  4025  4023    1  0.0000000000      0.5439200000       3
     4029  4027  4025  4023    1  0.0000000000      2.1756800000       3
     4017  4027  4025  4026    1  0.0000000000      0.5439200000       3
     4028  4027  4025  4026    1  0.0000000000      0.5020800000       3
     4029  4027  4025  4026    1  0.0000000000      0.5439200000       3
     4017  4027  4029  4021    1  0.0000000000      0.6508444444       3
     4017  4027  4029  4030    1  0.0000000000      0.6508444444       3
     4017  4027  4029  4031    1  0.0000000000      0.6508444444       3
     4025  4027  4029  4030    1  0.0000000000      0.6508444444       3
     4025  4027  4029  4031    1  0.0000000000      0.6508444444       3
     4028  4027  4029  4021    1  0.0000000000      0.5439200000       3
     4028  4027  4029  4030    1  0.0000000000      0.5020800000       3
     4028  4027  4029  4031    1  0.0000000000      0.5020800000       3
     4017  4027  4025  951     1  0.0000000000      0.6508444444       3
     4028  4027  4025  951     1  0.0000000000      0.6508444444       3
     4029  4027  4025  951     1  0.0000000000      0.6508444444       3
     4016  4032  4033  4012    1  180.0000000000    15.1670000000      2
     4016  4032  4033  4034    1  180.0000000000    15.1670000000      2
     4019  4032  4033  4012    1  180.0000000000    15.1670000000      2
     4019  4032  4033  4034    1  180.0000000000    15.1670000000      2
     4017  4019  4021  4022    1  0.0000000000      0.5439200000       3
     4017  4019  4021  4029    1  0.0000000000      2.1756800000       3
     4020  4019  4021  4022    1  0.0000000000      0.5020800000       3
     4020  4019  4021  4029    1  0.0000000000      0.5439200000       3
     4032  4019  4021  4022    1  0.0000000000      0.6508444444       3
     4032  4019  4021  4029    1  0.0000000000      0.6508444444       3
     4017  4019  4032  4016    1  180.0000000000    1.0041600000       2
     4017  4019  4032  4033    1  180.0000000000    1.0041600000       2
     4020  4019  4032  4016    1  0.0000000000      0.0000000000       1
     4020  4019  4032  4033    1  0.0000000000      0.0000000000       1
     4021  4019  4032  4016    1  180.0000000000    1.0041600000       2
     4021  4019  4032  4033    1  180.0000000000    1.0041600000       2
     4023  4021  4019  4017    1  0.0000000000      2.1756800000       3
     4023  4021  4019  4020    1  0.0000000000      0.5439200000       3
     4023  4021  4019  4032    1  0.0000000000      0.6508444444       3
     4019  4021  4023  4024    1  0.0000000000      0.5439200000       3
     4019  4021  4023  4025    1  0.0000000000      2.1756800000       3
     4022  4021  4023  4024    1  0.0000000000      0.5020800000       3
     4022  4021  4023  4025    1  0.0000000000      0.5439200000       3
     4029  4021  4023  4024    1  0.0000000000      0.5439200000       3
     4029  4021  4023  4025    1  0.0000000000      2.1756800000       3
     4019  4021  4029  4027    1  0.0000000000      0.6508444444       3
     4019  4021  4029  4030    1  0.0000000000      0.6508444444       3
     4019  4021  4029  4031    1  0.0000000000      0.6508444444       3
     4022  4021  4029  4027    1  0.0000000000      0.5439200000       3
     4022  4021  4029  4030    1  0.0000000000      0.5020800000       3
     4022  4021  4029  4031    1  0.0000000000      0.5020800000       3
     4023  4021  4029  4030    1  0.0000000000      0.6508444444       3
     4023  4021  4029  4031    1  0.0000000000      0.6508444444       3
     4019  4021  4023  950     1  0.0000000000      0.6508444444       3
     4022  4021  4023  950     1  0.0000000000      0.6508444444       3
     4029  4021  4023  950     1  0.0000000000      0.6508444444       3
     4021  4023  4025  4026    1  0.0000000000      0.6508444444       3
     4021  4023  4025  4027    1  0.0000000000      0.6508444444       3
     4024  4023  4025  4026    1  0.0000000000      0.6508444444       3
     4021  4023  4025  951     1  0.0000000000      0.6508444444       3
     950   4023  4025  4026    1  0.0000000000      0.6508444444       3
     4016  4017  4019  4020    1  0.0000000000      0.6508444444       3
     4016  4017  4019  4021    1  0.0000000000      0.6508444444       3
     4016  4017  4019  4032    1  0.0000000000      0.6508444444       3
     4018  4017  4019  4020    1  0.0000000000      0.6508444444       3
     4018  4017  4019  4021    1  0.0000000000      0.6508444444       3
     4018  4017  4019  4032    1  0.0000000000      0.6508444444       3
     4027  4017  4019  4020    1  0.0000000000      0.6508444444       3
     4027  4017  4019  4021    1  0.0000000000      0.6508444444       3
     4027  4017  4019  4032    1  0.0000000000      0.6508444444       3
     4016  4017  4027  4028    1  0.0000000000      0.6508444444       3
     4016  4017  4027  4029    1  0.0000000000      0.6508444444       3
     4018  4017  4027  4028    1  0.0000000000      0.5020800000       3
     4018  4017  4027  4029    1  0.0000000000      0.5439200000       3
     4019  4017  4027  4028    1  0.0000000000      0.5439200000       3
     4019  4017  4027  4029    1  0.0000000000      2.1756800000       3
     557   562   563   564     1  180.0000000000    15.1670000000      2
     557   562   563   585     1  180.0000000000    15.1670000000      2
     583   562   563   564     1  180.0000000000    15.1670000000      2
     583   562   563   585     1  180.0000000000    15.1670000000      2
     557   562   583   582     1  180.0000000000    15.1670000000      2
     557   562   583   584     1  180.0000000000    15.1670000000      2
     563   562   583   582     1  180.0000000000    15.1670000000      2
     563   562   583   584     1  180.0000000000    15.1670000000      2
     944   945   946   947     1  0.0000000000      0.0000000000       2
     944   945   946   948     1  0.0000000000      0.0000000000       2
     944   945   946   949     1  0.0000000000      0.0000000000       2
     944   945   950   951     1  180.0000000000    15.1670000000      2
     946   945   950   951     1  180.0000000000    15.1670000000      2
     950   945   944   957     1  180.0000000000    15.1670000000      2
     946   945   950   4023    1  180.0000000000    15.1670000000      2
     944   945   950   4023    1  180.0000000000    15.1670000000      2
     4007  4012  4013  4014    1  180.0000000000    15.1670000000      2
     4007  4012  4013  4035    1  180.0000000000    15.1670000000      2
     4033  4012  4013  4014    1  180.0000000000    15.1670000000      2
     4033  4012  4013  4035    1  180.0000000000    15.1670000000      2
     4007  4012  4033  4032    1  180.0000000000    15.1670000000      2
     4007  4012  4033  4034    1  180.0000000000    15.1670000000      2
     4013  4012  4033  4032    1  180.0000000000    15.1670000000      2
     4013  4012  4033  4034    1  180.0000000000    15.1670000000      2
     5278  5279  5281  5282    1  180.0000000000    15.1670000000      2
     5278  5279  5281  5311    1  180.0000000000    15.1670000000      2
     5280  5279  5281  5282    1  180.0000000000    15.1670000000      2
     5280  5279  5281  5311    1  180.0000000000    15.1670000000      2
     4014  4016  4017  4018    1  0.0000000000      0.0000000000       1
     4014  4016  4017  4019    1  180.0000000000    1.0041600000       2
     4014  4016  4017  4027    1  180.0000000000    1.0041600000       2
     4032  4016  4017  4018    1  0.0000000000      0.0000000000       1
     4032  4016  4017  4019    1  180.0000000000    1.0041600000       2
     4032  4016  4017  4027    1  180.0000000000    1.0041600000       2
     4014  4016  4032  4019    1  180.0000000000    15.1670000000      2
     4014  4016  4032  4033    1  180.0000000000    15.1670000000      2
     4017  4016  4032  4019    1  180.0000000000    15.1670000000      2
     4017  4016  4032  4033    1  180.0000000000    15.1670000000      2
     5279  5281  5282  5283    1  0.0000000000      0.0000000000       1
     5279  5281  5282  5284    1  180.0000000000    1.0041600000       2
     5279  5281  5282  5306    1  180.0000000000    1.0041600000       2
     5311  5281  5282  5283    1  0.0000000000      0.0000000000       1
     5311  5281  5282  5284    1  180.0000000000    1.0041600000       2
     5311  5281  5282  5306    1  180.0000000000    1.0041600000       2
     5279  5281  5311  5284    1  180.0000000000    15.1670000000      2
     5279  5281  5311  5312    1  180.0000000000    15.1670000000      2
     5282  5281  5311  5284    1  180.0000000000    15.1670000000      2
     5282  5281  5311  5312    1  180.0000000000    15.1670000000      2
     553   557   558   559     1  0.0000000000      0.5439200000       3
     553   557   558   560     1  0.0000000000      0.5439200000       3
     553   557   558   561     1  0.0000000000      0.5439200000       3
     562   557   558   559     1  0.0000000000      0.6508444444       3
     562   557   558   560     1  0.0000000000      0.6508444444       3
     562   557   558   561     1  0.0000000000      0.6508444444       3
     586   557   558   559     1  0.0000000000      0.6508444444       3
     586   557   558   560     1  0.0000000000      0.6508444444       3
     586   557   558   561     1  0.0000000000      0.6508444444       3
     553   557   562   563     1  0.0000000000      0.0000000000       2
     553   557   562   583     1  180.0000000000    1.0041600000       2
     558   557   562   563     1  0.0000000000      0.0000000000       2
     558   557   562   583     1  180.0000000000    1.0041600000       2
     586   557   562   563     1  0.0000000000      0.0000000000       2
     586   557   562   583     1  180.0000000000    0.0000000000       2
     553   557   586   585     1  0.0000000000      0.0000000000       2
     553   557   586   587     1  180.0000000000    1.0041600000       2
     558   557   586   585     1  0.0000000000      0.0000000000       2
     558   557   586   587     1  180.0000000000    1.0041600000       2
     562   557   586   585     1  0.0000000000      0.0000000000       2
     562   557   586   587     1  180.0000000000    0.0000000000       2
     554   553   557   558     1  0.0000000000      0.5439200000       3
     554   553   557   562     1  0.0000000000      0.6508444444       3
     554   553   557   586     1  0.0000000000      0.6508444444       3
     555   553   557   558     1  0.0000000000      0.5439200000       3
     555   553   557   562     1  0.0000000000      0.6508444444       3
     555   553   557   586     1  0.0000000000      0.6508444444       3
     556   553   557   558     1  0.0000000000      0.5439200000       3
     556   553   557   562     1  0.0000000000      0.6508444444       3
     556   553   557   586     1  0.0000000000      0.6508444444       3
     562   563   564   565     1  180.0000000000    15.1670000000      2
     562   563   564   566     1  180.0000000000    15.1670000000      2
     585   563   564   565     1  180.0000000000    15.1670000000      2
     585   563   564   566     1  180.0000000000    15.1670000000      2
     562   563   585   586     1  180.0000000000    4.1840000000       2
     562   563   585   620     1  180.0000000000    4.1840000000       2
     564   563   585   586     1  180.0000000000    4.1840000000       2
     564   563   585   620     1  180.0000000000    4.1840000000       2
     4003  4007  4008  4009    1  0.0000000000      0.5439200000       3
     4003  4007  4008  4010    1  0.0000000000      0.5439200000       3
     4003  4007  4008  4011    1  0.0000000000      0.5439200000       3
     4012  4007  4008  4009    1  0.0000000000      0.6508444444       3
     4012  4007  4008  4010    1  0.0000000000      0.6508444444       3
     4012  4007  4008  4011    1  0.0000000000      0.6508444444       3
     4036  4007  4008  4009    1  0.0000000000      0.6508444444       3
     4036  4007  4008  4010    1  0.0000000000      0.6508444444       3
     4036  4007  4008  4011    1  0.0000000000      0.6508444444       3
     4003  4007  4012  4013    1  0.0000000000      0.0000000000       2
     4003  4007  4012  4033    1  180.0000000000    1.0041600000       2
     4008  4007  4012  4013    1  0.0000000000      0.0000000000       2
     4008  4007  4012  4033    1  180.0000000000    1.0041600000       2
     4036  4007  4012  4013    1  0.0000000000      0.0000000000       2
     4036  4007  4012  4033    1  180.0000000000    0.0000000000       2
     4003  4007  4036  4035    1  0.0000000000      0.0000000000       2
     4003  4007  4036  4037    1  180.0000000000    1.0041600000       2
     4008  4007  4036  4035    1  0.0000000000      0.0000000000       2
     4008  4007  4036  4037    1  180.0000000000    1.0041600000       2
     4012  4007  4036  4035    1  0.0000000000      0.0000000000       2
     4012  4007  4036  4037    1  180.0000000000    0.0000000000       2
     567   569   571   572     1  0.0000000000      0.5439200000       3
     567   569   571   579     1  0.0000000000      2.1756800000       3
     570   569   571   572     1  0.0000000000      0.5020800000       3
     570   569   571   579     1  0.0000000000      0.5439200000       3
     582   569   571   572     1  0.0000000000      0.6508444444       3
     582   569   571   579     1  0.0000000000      0.6508444444       3
     567   569   582   566     1  180.0000000000    1.0041600000       2
     567   569   582   583     1  180.0000000000    1.0041600000       2
     570   569   582   566     1  0.0000000000      0.0000000000       1
     570   569   582   583     1  0.0000000000      0.0000000000       1
     571   569   582   566     1  180.0000000000    1.0041600000       2
     571   569   582   583     1  180.0000000000    1.0041600000       2
     951   952   943   941     1  180.0000000000    15.1670000000      2
     953   952   951   950     1  180.0000000000    15.1670000000      2
     943   952   953   954     1  0.0000000000      0.0000000000       2
     943   952   953   955     1  0.0000000000      0.0000000000       2
     943   952   953   956     1  0.0000000000      0.0000000000       2
     943   952   951   4025    1  180.0000000000    15.1670000000      2
     953   952   951   4025    1  180.0000000000    15.1670000000      2
     4012  4013  4014  4015    1  180.0000000000    15.1670000000      2
     4012  4013  4014  4016    1  180.0000000000    15.1670000000      2
     4035  4013  4014  4015    1  180.0000000000    15.1670000000      2
     4035  4013  4014  4016    1  180.0000000000    15.1670000000      2
     4012  4013  4035  4036    1  180.0000000000    4.1840000000       2
     4012  4013  4035  4070    1  180.0000000000    4.1840000000       2
     4014  4013  4035  4036    1  180.0000000000    4.1840000000       2
     4014  4013  4035  4070    1  180.0000000000    4.1840000000       2
     566   582   583   562     1  180.0000000000    15.1670000000      2
     566   582   583   584     1  180.0000000000    15.1670000000      2
     569   582   583   562     1  180.0000000000    15.1670000000      2
     569   582   583   584     1  180.0000000000    15.1670000000      2
     573   571   569   567     1  0.0000000000      2.1756800000       3
     573   571   569   570     1  0.0000000000      0.5439200000       3
     573   571   569   582     1  0.0000000000      0.6508444444       3
     569   571   573   574     1  0.0000000000      0.5439200000       3
     569   571   573   575     1  0.0000000000      2.1756800000       3
     572   571   573   574     1  0.0000000000      0.5020800000       3
     572   571   573   575     1  0.0000000000      0.5439200000       3
     579   571   573   574     1  0.0000000000      0.5439200000       3
     579   571   573   575     1  0.0000000000      2.1756800000       3
     569   571   579   577     1  0.0000000000      0.6508444444       3
     569   571   579   580     1  0.0000000000      0.6508444444       3
     569   571   579   581     1  0.0000000000      0.6508444444       3
     572   571   579   577     1  0.0000000000      0.5439200000       3
     572   571   579   580     1  0.0000000000      0.5020800000       3
     572   571   579   581     1  0.0000000000      0.5020800000       3
     573   571   579   580     1  0.0000000000      0.6508444444       3
     573   571   579   581     1  0.0000000000      0.6508444444       3
     569   571   573   5780    1  0.0000000000      0.6508444444       3
     572   571   573   5780    1  0.0000000000      0.6508444444       3
     579   571   573   5780    1  0.0000000000      0.6508444444       3
     4013  4014  4016  4017    1  180.0000000000    15.1670000000      2
     4013  4014  4016  4032    1  180.0000000000    15.1670000000      2
     4015  4014  4016  4017    1  180.0000000000    15.1670000000      2
     4015  4014  4016  4032    1  180.0000000000    15.1670000000      2
     943   944   945   946     1  180.0000000000    15.1670000000      2
     943   944   945   950     1  180.0000000000    15.1670000000      2
     957   944   945   946     1  180.0000000000    15.1670000000      2
     943   944   957   941     1  180.0000000000    1.0041600000       2
     943   944   957   958     1  0.0000000000      0.0000000000       1
     943   944   957   959     1  180.0000000000    1.0041600000       2
     945   944   957   941     1  180.0000000000    1.0041600000       2
     945   944   957   958     1  0.0000000000      0.0000000000       1
     945   944   957   959     1  180.0000000000    1.0041600000       2
     571   579   577   575     1  0.0000000000      0.6508444444       3
     577   579   571   573     1  0.0000000000      0.6508444444       3
     590   592   594   595     1  0.0000000000      0.5439200000       3
     590   592   594   596     1  0.0000000000      2.1756800000       3
     590   592   594   616     1  0.0000000000      2.1756800000       3
     593   592   594   595     1  0.0000000000      0.5020800000       3
     593   592   594   596     1  0.0000000000      0.5439200000       3
     593   592   594   616     1  0.0000000000      0.5439200000       3
     619   592   594   595     1  0.0000000000      0.6508444444       3
     619   592   594   596     1  0.0000000000      0.6508444444       3
     619   592   594   616     1  0.0000000000      0.6508444444       3
     590   592   619   589     1  180.0000000000    1.0041600000       2
     590   592   619   620     1  180.0000000000    1.0041600000       2
     593   592   619   589     1  0.0000000000      0.0000000000       1
     593   592   619   620     1  0.0000000000      0.0000000000       1
     594   592   619   589     1  180.0000000000    1.0041600000       2
     594   592   619   620     1  180.0000000000    1.0041600000       2
     4055  4050  4049  4062    1  180.0000000000    15.1670000000      2
     4049  4050  4051  4052    1  0.0000000000      0.0000000000       2
     4049  4050  4051  4053    1  0.0000000000      0.0000000000       2
     4049  4050  4051  4054    1  0.0000000000      0.0000000000       2
     4049  4050  4055  4056    1  180.0000000000    15.1670000000      2
     4051  4050  4055  4056    1  180.0000000000    15.1670000000      2
     4049  4050  4055  5888    1  180.0000000000    15.1670000000      2
     4051  4050  4055  5888    1  180.0000000000    15.1670000000      2
     587   589   590   591     1  0.0000000000      0.0000000000       1
     587   589   590   592     1  180.0000000000    1.0041600000       2
     587   589   590   614     1  180.0000000000    1.0041600000       2
     619   589   590   591     1  0.0000000000      0.0000000000       1
     619   589   590   592     1  180.0000000000    1.0041600000       2
     619   589   590   614     1  180.0000000000    1.0041600000       2
     587   589   619   592     1  180.0000000000    15.1670000000      2
     587   589   619   620     1  180.0000000000    15.1670000000      2
     590   589   619   592     1  180.0000000000    15.1670000000      2
     590   589   619   620     1  180.0000000000    15.1670000000      2
     605   600   599   612     1  180.0000000000    15.1670000000      2
     599   600   601   602     1  0.0000000000      0.0000000000       2
     599   600   601   603     1  0.0000000000      0.0000000000       2
     599   600   601   604     1  0.0000000000      0.0000000000       2
     599   600   605   606     1  180.0000000000    15.1670000000      2
     601   600   605   606     1  180.0000000000    15.1670000000      2
     599   600   605   228     1  180.0000000000    15.1670000000      2
     601   600   605   228     1  180.0000000000    15.1670000000      2
     4004  4003  4007  4008    1  0.0000000000      0.5439200000       3
     4004  4003  4007  4012    1  0.0000000000      0.6508444444       3
     4004  4003  4007  4036    1  0.0000000000      0.6508444444       3
     4005  4003  4007  4008    1  0.0000000000      0.5439200000       3
     4005  4003  4007  4012    1  0.0000000000      0.6508444444       3
     4005  4003  4007  4036    1  0.0000000000      0.6508444444       3
     4006  4003  4007  4008    1  0.0000000000      0.5439200000       3
     4006  4003  4007  4012    1  0.0000000000      0.6508444444       3
     4006  4003  4007  4036    1  0.0000000000      0.6508444444       3
     6730  6760  6761  6726    1  180.0000000000    15.1670000000      2
     6730  6760  6761  6762    1  180.0000000000    15.1670000000      2
     6733  6760  6761  6726    1  180.0000000000    15.1670000000      2
     6733  6760  6761  6762    1  180.0000000000    15.1670000000      2
     6698  6703  6704  6705    1  180.0000000000    15.1670000000      2
     6698  6703  6704  6726    1  180.0000000000    15.1670000000      2
     6724  6703  6704  6705    1  180.0000000000    15.1670000000      2
     6724  6703  6704  6726    1  180.0000000000    15.1670000000      2
     6698  6703  6724  6723    1  180.0000000000    15.1670000000      2
     6698  6703  6724  6725    1  180.0000000000    15.1670000000      2
     6704  6703  6724  6723    1  180.0000000000    15.1670000000      2
     6704  6703  6724  6725    1  180.0000000000    15.1670000000      2
     6731  6755  6757  6735    1  0.0000000000      0.6508444444       3
     6731  6755  6757  6758    1  0.0000000000      0.6508444444       3
     6731  6755  6757  6759    1  0.0000000000      0.6508444444       3
     6753  6755  6757  6735    1  0.0000000000      0.6508444444       3
     6753  6755  6757  6758    1  0.0000000000      0.6508444444       3
     6753  6755  6757  6759    1  0.0000000000      0.6508444444       3
     6756  6755  6757  6735    1  0.0000000000      0.5439200000       3
     6756  6755  6757  6758    1  0.0000000000      0.5020800000       3
     6756  6755  6757  6759    1  0.0000000000      0.5020800000       3
     5879  5880  5882  5883    1  0.0000000000      0.6508444444       3
     5879  5880  5882  5884    1  0.0000000000      0.6508444444       3
     5879  5880  5882  5895    1  0.0000000000      0.6508444444       3
     5881  5880  5882  5883    1  0.0000000000      0.6508444444       3
     5881  5880  5882  5884    1  0.0000000000      0.6508444444       3
     5881  5880  5882  5895    1  0.0000000000      0.6508444444       3
     5890  5880  5882  5883    1  0.0000000000      0.6508444444       3
     5890  5880  5882  5884    1  0.0000000000      0.6508444444       3
     5890  5880  5882  5895    1  0.0000000000      0.6508444444       3
     5879  5880  5890  5891    1  0.0000000000      0.6508444444       3
     5879  5880  5890  5892    1  0.0000000000      0.6508444444       3
     5881  5880  5890  5891    1  0.0000000000      0.5020800000       3
     5881  5880  5890  5892    1  0.0000000000      0.5439200000       3
     5882  5880  5890  5891    1  0.0000000000      0.5439200000       3
     5882  5880  5890  5892    1  0.0000000000      2.1756800000       3
     602   601   600   605     1  0.0000000000      0.0000000000       2
     603   601   600   605     1  0.0000000000      0.0000000000       2
     604   601   600   605     1  0.0000000000      0.0000000000       2
     4050  4055  4056  4057    1  180.0000000000    15.1670000000      2
     4050  4055  4056  5886    1  180.0000000000    15.1670000000      2
     4050  4055  5888  5886    1  180.0000000000    1.0041600000       2
     4056  4055  5888  5886    1  180.0000000000    1.0041600000       2
     4050  4055  5888  5889    1  0.0000000000      0.0000000000       1
     4056  4055  5888  5889    1  0.0000000000      0.0000000000       1
     4050  4055  5888  5890    1  180.0000000000    1.0041600000       2
     4056  4055  5888  5890    1  180.0000000000    1.0041600000       2
     5884  5886  5888  5889    1  0.0000000000      0.6508444444       3
     5884  5886  5888  5890    1  0.0000000000      0.6508444444       3
     5887  5886  5888  5889    1  0.0000000000      0.6508444444       3
     4056  5886  5888  5889    1  0.0000000000      0.6508444444       3
     4056  5886  5888  4055    1  0.0000000000      0.6508444444       3
     5884  5886  5888  4055    1  0.0000000000      0.6508444444       3
     590   614   616   594     1  0.0000000000      0.6508444444       3
     590   614   616   617     1  0.0000000000      0.6508444444       3
     590   614   616   618     1  0.0000000000      0.6508444444       3
     612   614   616   594     1  0.0000000000      0.6508444444       3
     612   614   616   617     1  0.0000000000      0.6508444444       3
     612   614   616   618     1  0.0000000000      0.6508444444       3
     615   614   616   594     1  0.0000000000      0.5439200000       3
     615   614   616   617     1  0.0000000000      0.5020800000       3
     615   614   616   618     1  0.0000000000      0.5020800000       3
     6698  6727  6728  6729    1  180.0000000000    15.1670000000      2
     6698  6727  6728  6730    1  180.0000000000    15.1670000000      2
     6726  6727  6728  6729    1  180.0000000000    15.1670000000      2
     6726  6727  6728  6730    1  180.0000000000    15.1670000000      2
     6694  6698  6699  6700    1  0.0000000000      0.5439200000       3
     6694  6698  6699  6701    1  0.0000000000      0.5439200000       3
     6694  6698  6699  6702    1  0.0000000000      0.5439200000       3
     6703  6698  6699  6700    1  0.0000000000      0.6508444444       3
     6703  6698  6699  6701    1  0.0000000000      0.6508444444       3
     6703  6698  6699  6702    1  0.0000000000      0.6508444444       3
     6727  6698  6699  6700    1  0.0000000000      0.6508444444       3
     6727  6698  6699  6701    1  0.0000000000      0.6508444444       3
     6727  6698  6699  6702    1  0.0000000000      0.6508444444       3
     6694  6698  6703  6704    1  0.0000000000      0.0000000000       2
     6694  6698  6703  6724    1  180.0000000000    1.0041600000       2
     6699  6698  6703  6704    1  0.0000000000      0.0000000000       2
     6699  6698  6703  6724    1  180.0000000000    1.0041600000       2
     6727  6698  6703  6704    1  0.0000000000      0.0000000000       2
     6727  6698  6703  6724    1  180.0000000000    0.0000000000       2
     6694  6698  6727  6726    1  0.0000000000      0.0000000000       2
     6694  6698  6727  6728    1  180.0000000000    1.0041600000       2
     6699  6698  6727  6726    1  0.0000000000      0.0000000000       2
     6699  6698  6727  6728    1  180.0000000000    1.0041600000       2
     6703  6698  6727  6726    1  0.0000000000      0.0000000000       2
     6703  6698  6727  6728    1  180.0000000000    0.0000000000       2
     4007  4036  4037  4038    1  180.0000000000    15.1670000000      2
     4007  4036  4037  4039    1  180.0000000000    15.1670000000      2
     4035  4036  4037  4038    1  180.0000000000    15.1670000000      2
     4035  4036  4037  4039    1  180.0000000000    15.1670000000      2
     4013  4035  4036  4007    1  180.0000000000    15.1670000000      2
     4013  4035  4036  4037    1  180.0000000000    15.1670000000      2
     4070  4035  4036  4007    1  180.0000000000    15.1670000000      2
     4070  4035  4036  4037    1  180.0000000000    15.1670000000      2
     4013  4035  4070  4069    1  180.0000000000    15.1670000000      2
     4013  4035  4070  4071    1  180.0000000000    15.1670000000      2
     4036  4035  4070  4069    1  180.0000000000    15.1670000000      2
     4036  4035  4070  4071    1  180.0000000000    15.1670000000      2
     5888  5890  5880  5879    1  0.0000000000      0.6508444444       3
     5888  5890  5880  5881    1  0.0000000000      0.5439200000       3
     5888  5890  5880  5882    1  0.0000000000      2.1756800000       3
     5880  5890  5888  5886    1  0.0000000000      2.1756800000       3
     5891  5890  5888  5886    1  0.0000000000      0.5439200000       3
     5892  5890  5888  5886    1  0.0000000000      2.1756800000       3
     5880  5890  5888  5889    1  0.0000000000      0.5439200000       3
     5891  5890  5888  5889    1  0.0000000000      0.5020800000       3
     5892  5890  5888  5889    1  0.0000000000      0.5439200000       3
     5880  5890  5892  5884    1  0.0000000000      0.6508444444       3
     5880  5890  5892  5893    1  0.0000000000      0.6508444444       3
     5880  5890  5892  5894    1  0.0000000000      0.6508444444       3
     5888  5890  5892  5893    1  0.0000000000      0.6508444444       3
     5888  5890  5892  5894    1  0.0000000000      0.6508444444       3
     5891  5890  5892  5884    1  0.0000000000      0.5439200000       3
     5891  5890  5892  5893    1  0.0000000000      0.5020800000       3
     5891  5890  5892  5894    1  0.0000000000      0.5020800000       3
     5880  5890  5888  4055    1  0.0000000000      0.6508444444       3
     5891  5890  5888  4055    1  0.0000000000      0.6508444444       3
     5892  5890  5888  4055    1  0.0000000000      0.6508444444       3
     5890  5888  5886  5887    1  0.0000000000      0.6508444444       3
     5890  5888  5886  4056    1  0.0000000000      0.6508444444       3
     4055  5888  5886  5887    1  0.0000000000      0.6508444444       3
     600   605   606   607     1  180.0000000000    15.1670000000      2
     228   605   606   230     1  180.0000000000    15.1670000000      2
     600   605   228   226     1  180.0000000000    1.0041600000       2
     606   605   228   226     1  180.0000000000    1.0041600000       2
     600   605   228   229     1  0.0000000000      0.0000000000       1
     606   605   228   229     1  0.0000000000      0.0000000000       1
     600   605   228   230     1  180.0000000000    1.0041600000       2
     606   605   228   230     1  180.0000000000    1.0041600000       2
     600   605   606   230     1  180.0000000000    15.1670000000      2
     6704  6726  6727  6698    1  180.0000000000    15.1670000000      2
     6704  6726  6727  6728    1  180.0000000000    15.1670000000      2
     6761  6726  6727  6698    1  180.0000000000    15.1670000000      2
     6761  6726  6727  6728    1  180.0000000000    15.1670000000      2
     6704  6726  6761  6760    1  180.0000000000    15.1670000000      2
     6704  6726  6761  6762    1  180.0000000000    15.1670000000      2
     6727  6726  6761  6760    1  180.0000000000    15.1670000000      2
     6727  6726  6761  6762    1  180.0000000000    15.1670000000      2
     563   585   586   557     1  180.0000000000    15.1670000000      2
     563   585   586   587     1  180.0000000000    15.1670000000      2
     620   585   586   557     1  180.0000000000    15.1670000000      2
     620   585   586   587     1  180.0000000000    15.1670000000      2
     563   585   620   619     1  180.0000000000    15.1670000000      2
     563   585   620   621     1  180.0000000000    15.1670000000      2
     586   585   620   619     1  180.0000000000    15.1670000000      2
     586   585   620   621     1  180.0000000000    15.1670000000      2
     589   619   620   585     1  180.0000000000    15.1670000000      2
     589   619   620   621     1  180.0000000000    15.1670000000      2
     592   619   620   585     1  180.0000000000    15.1670000000      2
     592   619   620   621     1  180.0000000000    15.1670000000      2
     596   612   614   590     1  0.0000000000      2.1756800000       3
     596   612   614   615     1  0.0000000000      0.5439200000       3
     596   612   614   616     1  0.0000000000      2.1756800000       3
     599   612   614   590     1  0.0000000000      0.6508444444       3
     599   612   614   615     1  0.0000000000      0.6508444444       3
     599   612   614   616     1  0.0000000000      0.6508444444       3
     613   612   614   590     1  0.0000000000      0.5439200000       3
     613   612   614   615     1  0.0000000000      0.5020800000       3
     613   612   614   616     1  0.0000000000      0.5439200000       3
     6730  6731  6733  6734    1  0.0000000000      0.6508444444       3
     6730  6731  6733  6735    1  0.0000000000      0.6508444444       3
     6730  6731  6733  6760    1  0.0000000000      0.6508444444       3
     6732  6731  6733  6734    1  0.0000000000      0.6508444444       3
     6732  6731  6733  6735    1  0.0000000000      0.6508444444       3
     6732  6731  6733  6760    1  0.0000000000      0.6508444444       3
     6755  6731  6733  6734    1  0.0000000000      0.6508444444       3
     6755  6731  6733  6735    1  0.0000000000      0.6508444444       3
     6755  6731  6733  6760    1  0.0000000000      0.6508444444       3
     6730  6731  6755  6753    1  0.0000000000      0.6508444444       3
     6730  6731  6755  6756    1  0.0000000000      0.6508444444       3
     6730  6731  6755  6757    1  0.0000000000      0.6508444444       3
     6732  6731  6755  6753    1  0.0000000000      0.5439200000       3
     6732  6731  6755  6756    1  0.0000000000      0.5020800000       3
     6732  6731  6755  6757    1  0.0000000000      0.5439200000       3
     6733  6731  6755  6753    1  0.0000000000      2.1756800000       3
     6733  6731  6755  6756    1  0.0000000000      0.5439200000       3
     6733  6731  6755  6757    1  0.0000000000      2.1756800000       3
     589   590   592   593     1  0.0000000000      0.6508444444       3
     589   590   592   594     1  0.0000000000      0.6508444444       3
     589   590   592   619     1  0.0000000000      0.6508444444       3
     591   590   592   593     1  0.0000000000      0.6508444444       3
     591   590   592   594     1  0.0000000000      0.6508444444       3
     591   590   592   619     1  0.0000000000      0.6508444444       3
     614   590   592   593     1  0.0000000000      0.6508444444       3
     614   590   592   594     1  0.0000000000      0.6508444444       3
     614   590   592   619     1  0.0000000000      0.6508444444       3
     589   590   614   612     1  0.0000000000      0.6508444444       3
     589   590   614   615     1  0.0000000000      0.6508444444       3
     589   590   614   616     1  0.0000000000      0.6508444444       3
     591   590   614   612     1  0.0000000000      0.5439200000       3
     591   590   614   615     1  0.0000000000      0.5020800000       3
     591   590   614   616     1  0.0000000000      0.5439200000       3
     592   590   614   612     1  0.0000000000      2.1756800000       3
     592   590   614   615     1  0.0000000000      0.5439200000       3
     592   590   614   616     1  0.0000000000      2.1756800000       3
     6728  6730  6731  6732    1  0.0000000000      0.0000000000       1
     6728  6730  6731  6733    1  180.0000000000    1.0041600000       2
     6728  6730  6731  6755    1  180.0000000000    1.0041600000       2
     6760  6730  6731  6732    1  0.0000000000      0.0000000000       1
     6760  6730  6731  6733    1  180.0000000000    1.0041600000       2
     6760  6730  6731  6755    1  180.0000000000    1.0041600000       2
     6728  6730  6760  6733    1  180.0000000000    15.1670000000      2
     6728  6730  6760  6761    1  180.0000000000    15.1670000000      2
     6731  6730  6760  6733    1  180.0000000000    15.1670000000      2
     6731  6730  6760  6761    1  180.0000000000    15.1670000000      2
     4059  4058  4057  4056    1  0.0000000000      0.0000000000       2
     4060  4058  4057  4056    1  0.0000000000      0.0000000000       2
     4061  4058  4057  4056    1  0.0000000000      0.0000000000       2
     557   586   587   588     1  180.0000000000    15.1670000000      2
     557   586   587   589     1  180.0000000000    15.1670000000      2
     585   586   587   588     1  180.0000000000    15.1670000000      2
     585   586   587   589     1  180.0000000000    15.1670000000      2
     598   599   600   601     1  180.0000000000    15.1670000000      2
     598   599   600   605     1  180.0000000000    15.1670000000      2
     612   599   600   601     1  180.0000000000    15.1670000000      2
     598   599   612   596     1  180.0000000000    1.0041600000       2
     598   599   612   613     1  0.0000000000      0.0000000000       1
     598   599   612   614     1  180.0000000000    1.0041600000       2
     600   599   612   596     1  180.0000000000    1.0041600000       2
     600   599   612   613     1  0.0000000000      0.0000000000       1
     600   599   612   614     1  180.0000000000    1.0041600000       2
     6737  6753  6755  6731    1  0.0000000000      2.1756800000       3
     6737  6753  6755  6756    1  0.0000000000      0.5439200000       3
     6737  6753  6755  6757    1  0.0000000000      2.1756800000       3
     6740  6753  6755  6731    1  0.0000000000      0.6508444444       3
     6740  6753  6755  6756    1  0.0000000000      0.6508444444       3
     6740  6753  6755  6757    1  0.0000000000      0.6508444444       3
     6754  6753  6755  6731    1  0.0000000000      0.5439200000       3
     6754  6753  6755  6756    1  0.0000000000      0.5020800000       3
     6754  6753  6755  6757    1  0.0000000000      0.5439200000       3
     4042  4044  4046  4047    1  0.0000000000      0.5439200000       3
     4042  4044  4046  4048    1  0.0000000000      0.6508444444       3
     4042  4044  4046  4062    1  0.0000000000      2.1756800000       3
     4045  4044  4046  4047    1  0.0000000000      0.5020800000       3
     4045  4044  4046  4048    1  0.0000000000      0.6508444444       3
     4045  4044  4046  4062    1  0.0000000000      0.5439200000       3
     4066  4044  4046  4047    1  0.0000000000      0.5439200000       3
     4066  4044  4046  4048    1  0.0000000000      0.6508444444       3
     4066  4044  4046  4062    1  0.0000000000      2.1756800000       3
     4042  4044  4066  4064    1  0.0000000000      0.6508444444       3
     4042  4044  4066  4067    1  0.0000000000      0.6508444444       3
     4042  4044  4066  4068    1  0.0000000000      0.6508444444       3
     4045  4044  4066  4064    1  0.0000000000      0.5439200000       3
     4045  4044  4066  4067    1  0.0000000000      0.5020800000       3
     4045  4044  4066  4068    1  0.0000000000      0.5020800000       3
     4046  4044  4066  4064    1  0.0000000000      0.6508444444       3
     4046  4044  4066  4067    1  0.0000000000      0.6508444444       3
     4046  4044  4066  4068    1  0.0000000000      0.6508444444       3
     6727  6728  6730  6731    1  180.0000000000    15.1670000000      2
     6727  6728  6730  6760    1  180.0000000000    15.1670000000      2
     6729  6728  6730  6731    1  180.0000000000    15.1670000000      2
     6729  6728  6730  6760    1  180.0000000000    15.1670000000      2
     4056  4057  4048  4046    1  180.0000000000    15.1670000000      2
     4058  4057  4056  4055    1  180.0000000000    15.1670000000      2
     4048  4057  4058  4059    1  0.0000000000      0.0000000000       2
     4048  4057  4058  4060    1  0.0000000000      0.0000000000       2
     4048  4057  4058  4061    1  0.0000000000      0.0000000000       2
     4048  4057  4056  5886    1  180.0000000000    15.1670000000      2
     4058  4057  4056  5886    1  180.0000000000    15.1670000000      2
     5880  5882  5884  5885    1  0.0000000000      0.5439200000       3
     5880  5882  5884  5892    1  0.0000000000      2.1756800000       3
     5883  5882  5884  5885    1  0.0000000000      0.5020800000       3
     5883  5882  5884  5892    1  0.0000000000      0.5439200000       3
     5895  5882  5884  5885    1  0.0000000000      0.6508444444       3
     5895  5882  5884  5892    1  0.0000000000      0.6508444444       3
     5880  5882  5895  5879    1  180.0000000000    1.0041600000       2
     5880  5882  5895  5896    1  180.0000000000    1.0041600000       2
     5883  5882  5895  5879    1  0.0000000000      0.0000000000       1
     5883  5882  5895  5896    1  0.0000000000      0.0000000000       1
     5884  5882  5895  5879    1  180.0000000000    1.0041600000       2
     5884  5882  5895  5896    1  180.0000000000    1.0041600000       2
     6695  6694  6698  6699    1  0.0000000000      0.5439200000       3
     6695  6694  6698  6703    1  0.0000000000      0.6508444444       3
     6695  6694  6698  6727    1  0.0000000000      0.6508444444       3
     6696  6694  6698  6699    1  0.0000000000      0.5439200000       3
     6696  6694  6698  6703    1  0.0000000000      0.6508444444       3
     6696  6694  6698  6727    1  0.0000000000      0.6508444444       3
     6697  6694  6698  6699    1  0.0000000000      0.5439200000       3
     6697  6694  6698  6703    1  0.0000000000      0.6508444444       3
     6697  6694  6698  6727    1  0.0000000000      0.6508444444       3
     5886  5884  5882  5880    1  0.0000000000      2.1756800000       3
     5886  5884  5882  5883    1  0.0000000000      0.5439200000       3
     5886  5884  5882  5895    1  0.0000000000      0.6508444444       3
     5882  5884  5886  5887    1  0.0000000000      0.5439200000       3
     5882  5884  5886  5888    1  0.0000000000      2.1756800000       3
     5885  5884  5886  5887    1  0.0000000000      0.5020800000       3
     5885  5884  5886  5888    1  0.0000000000      0.5439200000       3
     5892  5884  5886  5887    1  0.0000000000      0.5439200000       3
     5892  5884  5886  5888    1  0.0000000000      2.1756800000       3
     5882  5884  5892  5890    1  0.0000000000      0.6508444444       3
     5882  5884  5892  5893    1  0.0000000000      0.6508444444       3
     5882  5884  5892  5894    1  0.0000000000      0.6508444444       3
     5885  5884  5892  5890    1  0.0000000000      0.5439200000       3
     5885  5884  5892  5893    1  0.0000000000      0.5020800000       3
     5885  5884  5892  5894    1  0.0000000000      0.5020800000       3
     5886  5884  5892  5893    1  0.0000000000      0.6508444444       3
     5886  5884  5892  5894    1  0.0000000000      0.6508444444       3
     5882  5884  5886  4056    1  0.0000000000      0.6508444444       3
     5885  5884  5886  4056    1  0.0000000000      0.6508444444       3
     5892  5884  5886  4056    1  0.0000000000      0.6508444444       3
     4044  4046  4048  4049    1  180.0000000000    1.0041600000       2
     4044  4046  4048  4057    1  180.0000000000    1.0041600000       2
     4047  4046  4048  4049    1  0.0000000000      0.0000000000       1
     4047  4046  4048  4057    1  0.0000000000      0.0000000000       1
     4062  4046  4048  4049    1  180.0000000000    1.0041600000       2
     4062  4046  4048  4057    1  180.0000000000    1.0041600000       2
     4044  4046  4062  4049    1  0.0000000000      0.6508444444       3
     4044  4046  4062  4063    1  0.0000000000      0.6508444444       3
     4044  4046  4062  4064    1  0.0000000000      0.6508444444       3
     4047  4046  4062  4049    1  0.0000000000      0.6508444444       3
     4047  4046  4062  4063    1  0.0000000000      0.6508444444       3
     4047  4046  4062  4064    1  0.0000000000      0.6508444444       3
     4048  4046  4062  4049    1  0.0000000000      0.6508444444       3
     4048  4046  4062  4063    1  0.0000000000      0.6508444444       3
     4048  4046  4062  4064    1  0.0000000000      0.6508444444       3
     4040  4042  4044  4045    1  0.0000000000      0.5439200000       3
     4040  4042  4044  4046    1  0.0000000000      2.1756800000       3
     4040  4042  4044  4066    1  0.0000000000      2.1756800000       3
     4043  4042  4044  4045    1  0.0000000000      0.5020800000       3
     4043  4042  4044  4046    1  0.0000000000      0.5439200000       3
     4043  4042  4044  4066    1  0.0000000000      0.5439200000       3
     4069  4042  4044  4045    1  0.0000000000      0.6508444444       3
     4069  4042  4044  4046    1  0.0000000000      0.6508444444       3
     4069  4042  4044  4066    1  0.0000000000      0.6508444444       3
     4040  4042  4069  4039    1  180.0000000000    1.0041600000       2
     4040  4042  4069  4070    1  180.0000000000    1.0041600000       2
     4043  4042  4069  4039    1  0.0000000000      0.0000000000       1
     4043  4042  4069  4070    1  0.0000000000      0.0000000000       1
     4044  4042  4069  4039    1  180.0000000000    1.0041600000       2
     4044  4042  4069  4070    1  180.0000000000    1.0041600000       2
     4039  4069  4070  4035    1  180.0000000000    15.1670000000      2
     4039  4069  4070  4071    1  180.0000000000    15.1670000000      2
     4042  4069  4070  4035    1  180.0000000000    15.1670000000      2
     4042  4069  4070  4071    1  180.0000000000    15.1670000000      2
     4046  4048  4049  4050    1  180.0000000000    15.1670000000      2
     4046  4048  4049  4062    1  180.0000000000    15.1670000000      2
     4057  4048  4049  4050    1  180.0000000000    15.1670000000      2
     4057  4048  4049  4062    1  180.0000000000    15.1670000000      2
     4046  4048  4057  4058    1  180.0000000000    15.1670000000      2
     4049  4048  4057  4056    1  180.0000000000    15.1670000000      2
     4049  4048  4057  4058    1  180.0000000000    15.1670000000      2
     5890  5892  5884  5886    1  0.0000000000      0.6508444444       3
     5884  5892  5890  5888    1  0.0000000000      0.6508444444       3
     586   587   589   590     1  180.0000000000    15.1670000000      2
     586   587   589   619     1  180.0000000000    15.1670000000      2
     588   587   589   590     1  180.0000000000    15.1670000000      2
     588   587   589   619     1  180.0000000000    15.1670000000      2
     4055  4056  4057  4048    1  180.0000000000    15.1670000000      2
     5886  4056  4055  5888    1  180.0000000000    15.1670000000      2
     4055  4056  5886  5884    1  180.0000000000    1.0041600000       2
     4057  4056  5886  5884    1  180.0000000000    1.0041600000       2
     4055  4056  5886  5887    1  0.0000000000      0.0000000000       1
     4057  4056  5886  5887    1  0.0000000000      0.0000000000       1
     4055  4056  5886  5888    1  180.0000000000    1.0041600000       2
     4057  4056  5886  5888    1  180.0000000000    1.0041600000       2
     4057  4056  4055  5888    1  180.0000000000    15.1670000000      2
     4048  4049  4050  4051    1  180.0000000000    15.1670000000      2
     4048  4049  4050  4055    1  180.0000000000    15.1670000000      2
     4062  4049  4050  4051    1  180.0000000000    15.1670000000      2
     4048  4049  4062  4046    1  180.0000000000    1.0041600000       2
     4048  4049  4062  4063    1  0.0000000000      0.0000000000       1
     4048  4049  4062  4064    1  180.0000000000    1.0041600000       2
     4050  4049  4062  4046    1  180.0000000000    1.0041600000       2
     4050  4049  4062  4063    1  0.0000000000      0.0000000000       1
     4050  4049  4062  4064    1  180.0000000000    1.0041600000       2
     6735  6737  6739  6740    1  180.0000000000    1.0041600000       2
     6735  6737  6739  6748    1  180.0000000000    1.0041600000       2
     6738  6737  6739  6740    1  0.0000000000      0.0000000000       1
     6738  6737  6739  6748    1  0.0000000000      0.0000000000       1
     6753  6737  6739  6740    1  180.0000000000    1.0041600000       2
     6753  6737  6739  6748    1  180.0000000000    1.0041600000       2
     6735  6737  6753  6740    1  0.0000000000      0.6508444444       3
     6735  6737  6753  6754    1  0.0000000000      0.6508444444       3
     6735  6737  6753  6755    1  0.0000000000      0.6508444444       3
     6738  6737  6753  6740    1  0.0000000000      0.6508444444       3
     6738  6737  6753  6754    1  0.0000000000      0.6508444444       3
     6738  6737  6753  6755    1  0.0000000000      0.6508444444       3
     6739  6737  6753  6740    1  0.0000000000      0.6508444444       3
     6739  6737  6753  6754    1  0.0000000000      0.6508444444       3
     6739  6737  6753  6755    1  0.0000000000      0.6508444444       3
     4046  4062  4064  4040    1  0.0000000000      2.1756800000       3
     4046  4062  4064  4065    1  0.0000000000      0.5439200000       3
     4046  4062  4064  4066    1  0.0000000000      2.1756800000       3
     4049  4062  4064  4040    1  0.0000000000      0.6508444444       3
     4049  4062  4064  4065    1  0.0000000000      0.6508444444       3
     4049  4062  4064  4066    1  0.0000000000      0.6508444444       3
     4063  4062  4064  4040    1  0.0000000000      0.5439200000       3
     4063  4062  4064  4065    1  0.0000000000      0.5020800000       3
     4063  4062  4064  4066    1  0.0000000000      0.5439200000       3
     885   884   883   882     1  0.0000000000      0.0000000000       2
     886   884   883   882     1  0.0000000000      0.0000000000       2
     887   884   883   882     1  0.0000000000      0.0000000000       2
     874   883   884   885     1  0.0000000000      0.0000000000       2
     874   883   884   886     1  0.0000000000      0.0000000000       2
     874   883   884   887     1  0.0000000000      0.0000000000       2
     882   883   874   872     1  180.0000000000    15.1670000000      2
     884   883   882   881     1  180.0000000000    15.1670000000      2
     884   883   882   161     1  180.0000000000    15.1670000000      2
     874   883   882   161     1  180.0000000000    15.1670000000      2
     839   861   862   833     1  180.0000000000    15.1670000000      2
     839   861   862   863     1  180.0000000000    15.1670000000      2
     896   861   862   833     1  180.0000000000    15.1670000000      2
     896   861   862   863     1  180.0000000000    15.1670000000      2
     839   861   896   895     1  180.0000000000    15.1670000000      2
     839   861   896   897     1  180.0000000000    15.1670000000      2
     862   861   896   895     1  180.0000000000    15.1670000000      2
     862   861   896   897     1  180.0000000000    15.1670000000      2
     838   839   840   841     1  180.0000000000    15.1670000000      2
     838   839   840   842     1  180.0000000000    15.1670000000      2
     861   839   840   841     1  180.0000000000    15.1670000000      2
     861   839   840   842     1  180.0000000000    15.1670000000      2
     838   839   861   862     1  180.0000000000    4.1840000000       2
     838   839   861   896     1  180.0000000000    4.1840000000       2
     840   839   861   862     1  180.0000000000    4.1840000000       2
     840   839   861   896     1  180.0000000000    4.1840000000       2
     866   868   870   871     1  0.0000000000      0.5439200000       3
     866   868   870   872     1  0.0000000000      2.1756800000       3
     866   868   870   892     1  0.0000000000      2.1756800000       3
     869   868   870   871     1  0.0000000000      0.5020800000       3
     869   868   870   872     1  0.0000000000      0.5439200000       3
     869   868   870   892     1  0.0000000000      0.5439200000       3
     895   868   870   871     1  0.0000000000      0.6508444444       3
     895   868   870   872     1  0.0000000000      0.6508444444       3
     895   868   870   892     1  0.0000000000      0.6508444444       3
     866   868   895   865     1  180.0000000000    1.0041600000       2
     866   868   895   896     1  180.0000000000    1.0041600000       2
     869   868   895   865     1  0.0000000000      0.0000000000       1
     869   868   895   896     1  0.0000000000      0.0000000000       1
     870   868   895   865     1  180.0000000000    1.0041600000       2
     870   868   895   896     1  180.0000000000    1.0041600000       2
     3264  3262  3260  3258    1  0.0000000000      2.1756800000       3
     3264  3262  3260  3261    1  0.0000000000      0.5439200000       3
     3264  3262  3260  3273    1  0.0000000000      0.6508444444       3
     3260  3262  3264  3265    1  0.0000000000      0.5439200000       3
     3260  3262  3264  3266    1  0.0000000000      2.1756800000       3
     3263  3262  3264  3265    1  0.0000000000      0.5020800000       3
     3263  3262  3264  3266    1  0.0000000000      0.5439200000       3
     3270  3262  3264  3265    1  0.0000000000      0.5439200000       3
     3270  3262  3264  3266    1  0.0000000000      2.1756800000       3
     3260  3262  3270  3268    1  0.0000000000      0.6508444444       3
     3260  3262  3270  3271    1  0.0000000000      0.6508444444       3
     3260  3262  3270  3272    1  0.0000000000      0.6508444444       3
     3263  3262  3270  3268    1  0.0000000000      0.5439200000       3
     3263  3262  3270  3271    1  0.0000000000      0.5020800000       3
     3263  3262  3270  3272    1  0.0000000000      0.5020800000       3
     3264  3262  3270  3271    1  0.0000000000      0.6508444444       3
     3264  3262  3270  3272    1  0.0000000000      0.6508444444       3
     3260  3262  3264  2330    1  0.0000000000      0.6508444444       3
     3263  3262  3264  2330    1  0.0000000000      0.6508444444       3
     3270  3262  3264  2330    1  0.0000000000      0.6508444444       3
     4037  4039  4040  4041    1  0.0000000000      0.0000000000       1
     4037  4039  4040  4042    1  180.0000000000    1.0041600000       2
     4037  4039  4040  4064    1  180.0000000000    1.0041600000       2
     4069  4039  4040  4041    1  0.0000000000      0.0000000000       1
     4069  4039  4040  4042    1  180.0000000000    1.0041600000       2
     4069  4039  4040  4064    1  180.0000000000    1.0041600000       2
     4037  4039  4069  4042    1  180.0000000000    15.1670000000      2
     4037  4039  4069  4070    1  180.0000000000    15.1670000000      2
     4040  4039  4069  4042    1  180.0000000000    15.1670000000      2
     4040  4039  4069  4070    1  180.0000000000    15.1670000000      2
     868   870   872   873     1  0.0000000000      0.5439200000       3
     868   870   872   874     1  0.0000000000      0.6508444444       3
     868   870   872   888     1  0.0000000000      2.1756800000       3
     871   870   872   873     1  0.0000000000      0.5020800000       3
     871   870   872   874     1  0.0000000000      0.6508444444       3
     871   870   872   888     1  0.0000000000      0.5439200000       3
     892   870   872   873     1  0.0000000000      0.5439200000       3
     892   870   872   874     1  0.0000000000      0.6508444444       3
     892   870   872   888     1  0.0000000000      2.1756800000       3
     868   870   892   890     1  0.0000000000      0.6508444444       3
     868   870   892   893     1  0.0000000000      0.6508444444       3
     868   870   892   894     1  0.0000000000      0.6508444444       3
     871   870   892   890     1  0.0000000000      0.5439200000       3
     871   870   892   893     1  0.0000000000      0.5020800000       3
     871   870   892   894     1  0.0000000000      0.5020800000       3
     872   870   892   890     1  0.0000000000      0.6508444444       3
     872   870   892   893     1  0.0000000000      0.6508444444       3
     872   870   892   894     1  0.0000000000      0.6508444444       3
     881   882   883   874     1  180.0000000000    15.1670000000      2
     161   882   881   159     1  180.0000000000    15.1670000000      2
     881   882   161   159     1  180.0000000000    1.0041600000       2
     883   882   161   159     1  180.0000000000    1.0041600000       2
     881   882   161   162     1  0.0000000000      0.0000000000       1
     883   882   161   162     1  0.0000000000      0.0000000000       1
     881   882   161   163     1  180.0000000000    1.0041600000       2
     883   882   161   163     1  180.0000000000    1.0041600000       2
     883   882   881   159     1  180.0000000000    15.1670000000      2
     865   895   896   861     1  180.0000000000    15.1670000000      2
     865   895   896   897     1  180.0000000000    15.1670000000      2
     868   895   896   861     1  180.0000000000    15.1670000000      2
     868   895   896   897     1  180.0000000000    15.1670000000      2
     3258  3260  3262  3263    1  0.0000000000      0.5439200000       3
     3258  3260  3262  3270    1  0.0000000000      2.1756800000       3
     3261  3260  3262  3263    1  0.0000000000      0.5020800000       3
     3261  3260  3262  3270    1  0.0000000000      0.5439200000       3
     3273  3260  3262  3263    1  0.0000000000      0.6508444444       3
     3273  3260  3262  3270    1  0.0000000000      0.6508444444       3
     3258  3260  3273  3257    1  180.0000000000    1.0041600000       2
     3258  3260  3273  3274    1  180.0000000000    1.0041600000       2
     3261  3260  3273  3257    1  0.0000000000      0.0000000000       1
     3261  3260  3273  3274    1  0.0000000000      0.0000000000       1
     3262  3260  3273  3257    1  180.0000000000    1.0041600000       2
     3262  3260  3273  3274    1  180.0000000000    1.0041600000       2
     2325  2330  2331  2332    1  180.0000000000    15.1670000000      2
     2325  2330  2331  3266    1  180.0000000000    15.1670000000      2
     2325  2330  3264  3262    1  180.0000000000    1.0041600000       2
     2331  2330  3264  3262    1  180.0000000000    1.0041600000       2
     2325  2330  3264  3265    1  0.0000000000      0.0000000000       1
     2331  2330  3264  3265    1  0.0000000000      0.0000000000       1
     2325  2330  3264  3266    1  180.0000000000    1.0041600000       2
     2331  2330  3264  3266    1  180.0000000000    1.0041600000       2
     2323  2324  2325  2326    1  180.0000000000    15.1670000000      2
     2323  2324  2325  2330    1  180.0000000000    15.1670000000      2
     2337  2324  2325  2326    1  180.0000000000    15.1670000000      2
     2323  2324  2337  2321    1  180.0000000000    1.0041600000       2
     2323  2324  2337  2338    1  0.0000000000      0.0000000000       1
     2323  2324  2337  2339    1  180.0000000000    1.0041600000       2
     2325  2324  2337  2321    1  180.0000000000    1.0041600000       2
     2325  2324  2337  2338    1  0.0000000000      0.0000000000       1
     2325  2324  2337  2339    1  180.0000000000    1.0041600000       2
     2317  2319  2321  2322    1  0.0000000000      0.5439200000       3
     2317  2319  2321  2323    1  0.0000000000      0.6508444444       3
     2317  2319  2321  2337    1  0.0000000000      2.1756800000       3
     2320  2319  2321  2322    1  0.0000000000      0.5020800000       3
     2320  2319  2321  2323    1  0.0000000000      0.6508444444       3
     2320  2319  2321  2337    1  0.0000000000      0.5439200000       3
     2341  2319  2321  2322    1  0.0000000000      0.5439200000       3
     2341  2319  2321  2323    1  0.0000000000      0.6508444444       3
     2341  2319  2321  2337    1  0.0000000000      2.1756800000       3
     2317  2319  2341  2339    1  0.0000000000      0.6508444444       3
     2317  2319  2341  2342    1  0.0000000000      0.6508444444       3
     2317  2319  2341  2343    1  0.0000000000      0.6508444444       3
     2320  2319  2341  2339    1  0.0000000000      0.5439200000       3
     2320  2319  2341  2342    1  0.0000000000      0.5020800000       3
     2320  2319  2341  2343    1  0.0000000000      0.5020800000       3
     2321  2319  2341  2339    1  0.0000000000      0.6508444444       3
     2321  2319  2341  2342    1  0.0000000000      0.6508444444       3
     2321  2319  2341  2343    1  0.0000000000      0.6508444444       3
     2315  2317  2319  2320    1  0.0000000000      0.5439200000       3
     2315  2317  2319  2321    1  0.0000000000      2.1756800000       3
     2315  2317  2319  2341    1  0.0000000000      2.1756800000       3
     2318  2317  2319  2320    1  0.0000000000      0.5020800000       3
     2318  2317  2319  2321    1  0.0000000000      0.5439200000       3
     2318  2317  2319  2341    1  0.0000000000      0.5439200000       3
     2344  2317  2319  2320    1  0.0000000000      0.6508444444       3
     2344  2317  2319  2321    1  0.0000000000      0.6508444444       3
     2344  2317  2319  2341    1  0.0000000000      0.6508444444       3
     2315  2317  2344  2314    1  180.0000000000    1.0041600000       2
     2315  2317  2344  2345    1  180.0000000000    1.0041600000       2
     2318  2317  2344  2314    1  0.0000000000      0.0000000000       1
     2318  2317  2344  2345    1  0.0000000000      0.0000000000       1
     2319  2317  2344  2314    1  180.0000000000    1.0041600000       2
     2319  2317  2344  2345    1  180.0000000000    1.0041600000       2
     2311  2312  2314  2315    1  180.0000000000    15.1670000000      2
     2311  2312  2314  2344    1  180.0000000000    15.1670000000      2
     2313  2312  2314  2315    1  180.0000000000    15.1670000000      2
     2313  2312  2314  2344    1  180.0000000000    15.1670000000      2
     4052  4051  4050  4055    1  0.0000000000      0.0000000000       2
     4053  4051  4050  4055    1  0.0000000000      0.0000000000       2
     4054  4051  4050  4055    1  0.0000000000      0.0000000000       2
     4040  4064  4066  4044    1  0.0000000000      0.6508444444       3
     4040  4064  4066  4067    1  0.0000000000      0.6508444444       3
     4040  4064  4066  4068    1  0.0000000000      0.6508444444       3
     4062  4064  4066  4044    1  0.0000000000      0.6508444444       3
     4062  4064  4066  4067    1  0.0000000000      0.6508444444       3
     4062  4064  4066  4068    1  0.0000000000      0.6508444444       3
     4065  4064  4066  4044    1  0.0000000000      0.5439200000       3
     4065  4064  4066  4067    1  0.0000000000      0.5020800000       3
     4065  4064  4066  4068    1  0.0000000000      0.5020800000       3
     3268  3266  3264  3265    1  0.0000000000      0.6508444444       3
     2331  3266  3264  3265    1  0.0000000000      0.6508444444       3
     2331  3266  3264  2330    1  0.0000000000      0.6508444444       3
     3268  3266  3264  2330    1  0.0000000000      0.6508444444       3
     3268  3270  3262  3264    1  0.0000000000      0.6508444444       3
     3262  3270  3268  3266    1  0.0000000000      0.6508444444       3
     2321  2323  2324  2325    1  180.0000000000    15.1670000000      2
     2321  2323  2324  2337    1  180.0000000000    15.1670000000      2
     2332  2323  2324  2325    1  180.0000000000    15.1670000000      2
     2332  2323  2324  2337    1  180.0000000000    15.1670000000      2
     2321  2323  2332  2333    1  180.0000000000    15.1670000000      2
     2324  2323  2332  2331    1  180.0000000000    15.1670000000      2
     2324  2323  2332  2333    1  180.0000000000    15.1670000000      2
     2330  2325  2324  2337    1  180.0000000000    15.1670000000      2
     2324  2325  2326  2327    1  0.0000000000      0.0000000000       2
     2324  2325  2326  2328    1  0.0000000000      0.0000000000       2
     2324  2325  2326  2329    1  0.0000000000      0.0000000000       2
     2324  2325  2330  2331    1  180.0000000000    15.1670000000      2
     2326  2325  2330  2331    1  180.0000000000    15.1670000000      2
     2324  2325  2330  3264    1  180.0000000000    15.1670000000      2
     2326  2325  2330  3264    1  180.0000000000    15.1670000000      2
     2288  2310  2311  2282    1  180.0000000000    15.1670000000      2
     2288  2310  2311  2312    1  180.0000000000    15.1670000000      2
     2345  2310  2311  2282    1  180.0000000000    15.1670000000      2
     2345  2310  2311  2312    1  180.0000000000    15.1670000000      2
     2288  2310  2345  2344    1  180.0000000000    15.1670000000      2
     2288  2310  2345  2346    1  180.0000000000    15.1670000000      2
     2311  2310  2345  2344    1  180.0000000000    15.1670000000      2
     2311  2310  2345  2346    1  180.0000000000    15.1670000000      2
     2314  2344  2345  2310    1  180.0000000000    15.1670000000      2
     2314  2344  2345  2346    1  180.0000000000    15.1670000000      2
     2317  2344  2345  2310    1  180.0000000000    15.1670000000      2
     2317  2344  2345  2346    1  180.0000000000    15.1670000000      2
     2327  2326  2325  2330    1  0.0000000000      0.0000000000       2
     2328  2326  2325  2330    1  0.0000000000      0.0000000000       2
     2329  2326  2325  2330    1  0.0000000000      0.0000000000       2
     2315  2339  2341  2319    1  0.0000000000      0.6508444444       3
     2315  2339  2341  2342    1  0.0000000000      0.6508444444       3
     2315  2339  2341  2343    1  0.0000000000      0.6508444444       3
     2337  2339  2341  2319    1  0.0000000000      0.6508444444       3
     2337  2339  2341  2342    1  0.0000000000      0.6508444444       3
     2337  2339  2341  2343    1  0.0000000000      0.6508444444       3
     2340  2339  2341  2319    1  0.0000000000      0.5439200000       3
     2340  2339  2341  2342    1  0.0000000000      0.5020800000       3
     2340  2339  2341  2343    1  0.0000000000      0.5020800000       3
     2282  2311  2312  2313    1  180.0000000000    15.1670000000      2
     2282  2311  2312  2314    1  180.0000000000    15.1670000000      2
     2310  2311  2312  2313    1  180.0000000000    15.1670000000      2
     2310  2311  2312  2314    1  180.0000000000    15.1670000000      2
     2319  2321  2323  2324    1  180.0000000000    1.0041600000       2
     2319  2321  2323  2332    1  180.0000000000    1.0041600000       2
     2322  2321  2323  2324    1  0.0000000000      0.0000000000       1
     2322  2321  2323  2332    1  0.0000000000      0.0000000000       1
     2337  2321  2323  2324    1  180.0000000000    1.0041600000       2
     2337  2321  2323  2332    1  180.0000000000    1.0041600000       2
     2319  2321  2337  2324    1  0.0000000000      0.6508444444       3
     2319  2321  2337  2338    1  0.0000000000      0.6508444444       3
     2319  2321  2337  2339    1  0.0000000000      0.6508444444       3
     2322  2321  2337  2324    1  0.0000000000      0.6508444444       3
     2322  2321  2337  2338    1  0.0000000000      0.6508444444       3
     2322  2321  2337  2339    1  0.0000000000      0.6508444444       3
     2323  2321  2337  2324    1  0.0000000000      0.6508444444       3
     2323  2321  2337  2338    1  0.0000000000      0.6508444444       3
     2323  2321  2337  2339    1  0.0000000000      0.6508444444       3
     3262  3264  3266  3267    1  0.0000000000      0.6508444444       3
     3262  3264  3266  3268    1  0.0000000000      0.6508444444       3
     3265  3264  3266  3267    1  0.0000000000      0.6508444444       3
     3262  3264  3266  2331    1  0.0000000000      0.6508444444       3
     2330  3264  3266  3267    1  0.0000000000      0.6508444444       3
     2334  2333  2332  2331    1  0.0000000000      0.0000000000       2
     2335  2333  2332  2331    1  0.0000000000      0.0000000000       2
     2336  2333  2332  2331    1  0.0000000000      0.0000000000       2
     2321  2337  2339  2315    1  0.0000000000      2.1756800000       3
     2321  2337  2339  2340    1  0.0000000000      0.5439200000       3
     2321  2337  2339  2341    1  0.0000000000      2.1756800000       3
     2324  2337  2339  2315    1  0.0000000000      0.6508444444       3
     2324  2337  2339  2340    1  0.0000000000      0.6508444444       3
     2324  2337  2339  2341    1  0.0000000000      0.6508444444       3
     2338  2337  2339  2315    1  0.0000000000      0.5439200000       3
     2338  2337  2339  2340    1  0.0000000000      0.5020800000       3
     2338  2337  2339  2341    1  0.0000000000      0.5439200000       3
     2330  2331  2332  2323    1  180.0000000000    15.1670000000      2
     3266  2331  2330  3264    1  180.0000000000    15.1670000000      2
     2330  2331  3266  3264    1  180.0000000000    1.0041600000       2
     2332  2331  3266  3264    1  180.0000000000    1.0041600000       2
     2330  2331  3266  3267    1  0.0000000000      0.0000000000       1
     2332  2331  3266  3267    1  0.0000000000      0.0000000000       1
     2330  2331  3266  3268    1  180.0000000000    1.0041600000       2
     2332  2331  3266  3268    1  180.0000000000    1.0041600000       2
     2332  2331  2330  3264    1  180.0000000000    15.1670000000      2
     2314  2315  2317  2318    1  0.0000000000      0.6508444444       3
     2314  2315  2317  2319    1  0.0000000000      0.6508444444       3
     2314  2315  2317  2344    1  0.0000000000      0.6508444444       3
     2316  2315  2317  2318    1  0.0000000000      0.6508444444       3
     2316  2315  2317  2319    1  0.0000000000      0.6508444444       3
     2316  2315  2317  2344    1  0.0000000000      0.6508444444       3
     2339  2315  2317  2318    1  0.0000000000      0.6508444444       3
     2339  2315  2317  2319    1  0.0000000000      0.6508444444       3
     2339  2315  2317  2344    1  0.0000000000      0.6508444444       3
     2314  2315  2339  2337    1  0.0000000000      0.6508444444       3
     2314  2315  2339  2340    1  0.0000000000      0.6508444444       3
     2314  2315  2339  2341    1  0.0000000000      0.6508444444       3
     2316  2315  2339  2337    1  0.0000000000      0.5439200000       3
     2316  2315  2339  2340    1  0.0000000000      0.5020800000       3
     2316  2315  2339  2341    1  0.0000000000      0.5439200000       3
     2317  2315  2339  2337    1  0.0000000000      2.1756800000       3
     2317  2315  2339  2340    1  0.0000000000      0.5439200000       3
     2317  2315  2339  2341    1  0.0000000000      2.1756800000       3
     2312  2314  2315  2316    1  0.0000000000      0.0000000000       1
     2312  2314  2315  2317    1  180.0000000000    1.0041600000       2
     2312  2314  2315  2339    1  180.0000000000    1.0041600000       2
     2344  2314  2315  2316    1  0.0000000000      0.0000000000       1
     2344  2314  2315  2317    1  180.0000000000    1.0041600000       2
     2344  2314  2315  2339    1  180.0000000000    1.0041600000       2
     2312  2314  2344  2317    1  180.0000000000    15.1670000000      2
     2312  2314  2344  2345    1  180.0000000000    15.1670000000      2
     2315  2314  2344  2317    1  180.0000000000    15.1670000000      2
     2315  2314  2344  2345    1  180.0000000000    15.1670000000      2
     2331  2332  2323  2321    1  180.0000000000    15.1670000000      2
     2333  2332  2331  2330    1  180.0000000000    15.1670000000      2
     2323  2332  2333  2334    1  0.0000000000      0.0000000000       2
     2323  2332  2333  2335    1  0.0000000000      0.0000000000       2
     2323  2332  2333  2336    1  0.0000000000      0.0000000000       2
     2323  2332  2331  3266    1  180.0000000000    15.1670000000      2
     2333  2332  2331  3266    1  180.0000000000    15.1670000000      2
     2279  2278  2282  2283    1  0.0000000000      0.5439200000       3
     2279  2278  2282  2287    1  0.0000000000      0.6508444444       3
     2279  2278  2282  2311    1  0.0000000000      0.6508444444       3
     2280  2278  2282  2283    1  0.0000000000      0.5439200000       3
     2280  2278  2282  2287    1  0.0000000000      0.6508444444       3
     2280  2278  2282  2311    1  0.0000000000      0.6508444444       3
     2281  2278  2282  2283    1  0.0000000000      0.5439200000       3
     2281  2278  2282  2287    1  0.0000000000      0.6508444444       3
     2281  2278  2282  2311    1  0.0000000000      0.6508444444       3
     4039  4040  4042  4043    1  0.0000000000      0.6508444444       3
     4039  4040  4042  4044    1  0.0000000000      0.6508444444       3
     4039  4040  4042  4069    1  0.0000000000      0.6508444444       3
     4041  4040  4042  4043    1  0.0000000000      0.6508444444       3
     4041  4040  4042  4044    1  0.0000000000      0.6508444444       3
     4041  4040  4042  4069    1  0.0000000000      0.6508444444       3
     4064  4040  4042  4043    1  0.0000000000      0.6508444444       3
     4064  4040  4042  4044    1  0.0000000000      0.6508444444       3
     4064  4040  4042  4069    1  0.0000000000      0.6508444444       3
     4039  4040  4064  4062    1  0.0000000000      0.6508444444       3
     4039  4040  4064  4065    1  0.0000000000      0.6508444444       3
     4039  4040  4064  4066    1  0.0000000000      0.6508444444       3
     4041  4040  4064  4062    1  0.0000000000      0.5439200000       3
     4041  4040  4064  4065    1  0.0000000000      0.5020800000       3
     4041  4040  4064  4066    1  0.0000000000      0.5439200000       3
     4042  4040  4064  4062    1  0.0000000000      2.1756800000       3
     4042  4040  4064  4065    1  0.0000000000      0.5439200000       3
     4042  4040  4064  4066    1  0.0000000000      2.1756800000       3
     4036  4037  4039  4040    1  180.0000000000    15.1670000000      2
     4036  4037  4039  4069    1  180.0000000000    15.1670000000      2
     4038  4037  4039  4040    1  180.0000000000    15.1670000000      2
     4038  4037  4039  4069    1  180.0000000000    15.1670000000      2
     5470  5478  5476  5474    1  0.0000000000      0.6508444444       3
     5476  5478  5470  5472    1  0.0000000000      0.6508444444       3
     2219  2241  2242  2213    1  180.0000000000    15.1670000000      2
     2219  2241  2242  2243    1  180.0000000000    15.1670000000      2
     2276  2241  2242  2213    1  180.0000000000    15.1670000000      2
     2276  2241  2242  2243    1  180.0000000000    15.1670000000      2
     2219  2241  2276  2275    1  180.0000000000    15.1670000000      2
     2219  2241  2276  2277    1  180.0000000000    15.1670000000      2
     2242  2241  2276  2275    1  180.0000000000    15.1670000000      2
     2242  2241  2276  2277    1  180.0000000000    15.1670000000      2
     2245  2275  2276  2241    1  180.0000000000    15.1670000000      2
     2245  2275  2276  2277    1  180.0000000000    15.1670000000      2
     2248  2275  2276  2241    1  180.0000000000    15.1670000000      2
     2248  2275  2276  2277    1  180.0000000000    15.1670000000      2
     2218  2219  2220  2221    1  180.0000000000    15.1670000000      2
     2218  2219  2220  2222    1  180.0000000000    15.1670000000      2
     2241  2219  2220  2221    1  180.0000000000    15.1670000000      2
     2241  2219  2220  2222    1  180.0000000000    15.1670000000      2
     2218  2219  2241  2242    1  180.0000000000    4.1840000000       2
     2218  2219  2241  2276    1  180.0000000000    4.1840000000       2
     2220  2219  2241  2242    1  180.0000000000    4.1840000000       2
     2220  2219  2241  2276    1  180.0000000000    4.1840000000       2
     2213  2218  2219  2220    1  180.0000000000    15.1670000000      2
     2213  2218  2219  2241    1  180.0000000000    15.1670000000      2
     2239  2218  2219  2220    1  180.0000000000    15.1670000000      2
     2239  2218  2219  2241    1  180.0000000000    15.1670000000      2
     2213  2218  2239  2238    1  180.0000000000    15.1670000000      2
     2213  2218  2239  2240    1  180.0000000000    15.1670000000      2
     2219  2218  2239  2238    1  180.0000000000    15.1670000000      2
     2219  2218  2239  2240    1  180.0000000000    15.1670000000      2
     2219  2220  2222  2223    1  180.0000000000    15.1670000000      2
     2219  2220  2222  2238    1  180.0000000000    15.1670000000      2
     2221  2220  2222  2223    1  180.0000000000    15.1670000000      2
     2221  2220  2222  2238    1  180.0000000000    15.1670000000      2
     2220  2222  2223  2224    1  0.0000000000      0.0000000000       1
     2220  2222  2223  2225    1  180.0000000000    1.0041600000       2
     2220  2222  2223  2233    1  180.0000000000    1.0041600000       2
     2238  2222  2223  2224    1  0.0000000000      0.0000000000       1
     2238  2222  2223  2225    1  180.0000000000    1.0041600000       2
     2238  2222  2223  2233    1  180.0000000000    1.0041600000       2
     2220  2222  2238  2225    1  180.0000000000    15.1670000000      2
     2220  2222  2238  2239    1  180.0000000000    15.1670000000      2
     2223  2222  2238  2225    1  180.0000000000    15.1670000000      2
     2223  2222  2238  2239    1  180.0000000000    15.1670000000      2
     2222  2238  2239  2218    1  180.0000000000    15.1670000000      2
     2222  2238  2239  2240    1  180.0000000000    15.1670000000      2
     2225  2238  2239  2218    1  180.0000000000    15.1670000000      2
     2225  2238  2239  2240    1  180.0000000000    15.1670000000      2
     5039  5038  5042  5043    1  0.0000000000      0.5439200000       3
     5039  5038  5042  5047    1  0.0000000000      0.6508444444       3
     5039  5038  5042  5071    1  0.0000000000      0.6508444444       3
     5040  5038  5042  5043    1  0.0000000000      0.5439200000       3
     5040  5038  5042  5047    1  0.0000000000      0.6508444444       3
     5040  5038  5042  5071    1  0.0000000000      0.6508444444       3
     5041  5038  5042  5043    1  0.0000000000      0.5439200000       3
     5041  5038  5042  5047    1  0.0000000000      0.6508444444       3
     5041  5038  5042  5071    1  0.0000000000      0.6508444444       3
     6511  6509  6507  6508    1  0.0000000000      0.6508444444       3
     6511  6509  6507  2261    1  0.0000000000      0.6508444444       3
     2262  6509  6507  6508    1  0.0000000000      0.6508444444       3
     2261  2262  2263  2254    1  180.0000000000    15.1670000000      2
     2263  2262  2261  6507    1  180.0000000000    15.1670000000      2
     2263  2262  6509  6507    1  180.0000000000    1.0041600000       2
     2261  2262  6509  6507    1  180.0000000000    1.0041600000       2
     2263  2262  6509  6510    1  0.0000000000      0.0000000000       1
     2261  2262  6509  6510    1  0.0000000000      0.0000000000       1
     2263  2262  6509  6511    1  180.0000000000    1.0041600000       2
     2261  2262  6509  6511    1  180.0000000000    1.0041600000       2
     2256  2261  2262  2263    1  180.0000000000    15.1670000000      2
     6507  2261  2262  6509    1  180.0000000000    15.1670000000      2
     2256  2261  6507  6505    1  180.0000000000    1.0041600000       2
     2262  2261  6507  6505    1  180.0000000000    1.0041600000       2
     2256  2261  6507  6508    1  0.0000000000      0.0000000000       1
     2262  2261  6507  6508    1  0.0000000000      0.0000000000       1
     2256  2261  6507  6509    1  180.0000000000    1.0041600000       2
     2262  2261  6507  6509    1  180.0000000000    1.0041600000       2
     2256  2261  2262  6509    1  180.0000000000    15.1670000000      2
     2210  2209  2213  2214    1  0.0000000000      0.5439200000       3
     2210  2209  2213  2218    1  0.0000000000      0.6508444444       3
     2210  2209  2213  2242    1  0.0000000000      0.6508444444       3
     2211  2209  2213  2214    1  0.0000000000      0.5439200000       3
     2211  2209  2213  2218    1  0.0000000000      0.6508444444       3
     2211  2209  2213  2242    1  0.0000000000      0.6508444444       3
     2212  2209  2213  2214    1  0.0000000000      0.5439200000       3
     2212  2209  2213  2218    1  0.0000000000      0.6508444444       3
     2212  2209  2213  2242    1  0.0000000000      0.6508444444       3
     2213  2242  2243  2244    1  180.0000000000    15.1670000000      2
     2213  2242  2243  2245    1  180.0000000000    15.1670000000      2
     2241  2242  2243  2244    1  180.0000000000    15.1670000000      2
     2241  2242  2243  2245    1  180.0000000000    15.1670000000      2
     2209  2213  2214  2215    1  0.0000000000      0.5439200000       3
     2209  2213  2214  2216    1  0.0000000000      0.5439200000       3
     2209  2213  2214  2217    1  0.0000000000      0.5439200000       3
     2218  2213  2214  2215    1  0.0000000000      0.6508444444       3
     2218  2213  2214  2216    1  0.0000000000      0.6508444444       3
     2218  2213  2214  2217    1  0.0000000000      0.6508444444       3
     2242  2213  2214  2215    1  0.0000000000      0.6508444444       3
     2242  2213  2214  2216    1  0.0000000000      0.6508444444       3
     2242  2213  2214  2217    1  0.0000000000      0.6508444444       3
     2209  2213  2218  2219    1  0.0000000000      0.0000000000       2
     2209  2213  2218  2239    1  180.0000000000    1.0041600000       2
     2214  2213  2218  2219    1  0.0000000000      0.0000000000       2
     2214  2213  2218  2239    1  180.0000000000    1.0041600000       2
     2242  2213  2218  2219    1  0.0000000000      0.0000000000       2
     2242  2213  2218  2239    1  180.0000000000    0.0000000000       2
     2209  2213  2242  2241    1  0.0000000000      0.0000000000       2
     2209  2213  2242  2243    1  180.0000000000    1.0041600000       2
     2214  2213  2242  2241    1  0.0000000000      0.0000000000       2
     2214  2213  2242  2243    1  180.0000000000    1.0041600000       2
     2218  2213  2242  2241    1  0.0000000000      0.0000000000       2
     2218  2213  2242  2243    1  180.0000000000    0.0000000000       2
     2246  2248  2250  2251    1  0.0000000000      0.5439200000       3
     2246  2248  2250  2252    1  0.0000000000      2.1756800000       3
     2246  2248  2250  2272    1  0.0000000000      2.1756800000       3
     2249  2248  2250  2251    1  0.0000000000      0.5020800000       3
     2249  2248  2250  2252    1  0.0000000000      0.5439200000       3
     2249  2248  2250  2272    1  0.0000000000      0.5439200000       3
     2275  2248  2250  2251    1  0.0000000000      0.6508444444       3
     2275  2248  2250  2252    1  0.0000000000      0.6508444444       3
     2275  2248  2250  2272    1  0.0000000000      0.6508444444       3
     2246  2248  2275  2245    1  180.0000000000    1.0041600000       2
     2246  2248  2275  2276    1  180.0000000000    1.0041600000       2
     2249  2248  2275  2245    1  0.0000000000      0.0000000000       1
     2249  2248  2275  2276    1  0.0000000000      0.0000000000       1
     2250  2248  2275  2245    1  180.0000000000    1.0041600000       2
     2250  2248  2275  2276    1  180.0000000000    1.0041600000       2
     2254  2263  2264  2265    1  0.0000000000      0.0000000000       2
     2254  2263  2264  2266    1  0.0000000000      0.0000000000       2
     2254  2263  2264  2267    1  0.0000000000      0.0000000000       2
     2262  2263  2254  2252    1  180.0000000000    15.1670000000      2
     2264  2263  2262  2261    1  180.0000000000    15.1670000000      2
     2264  2263  2262  6509    1  180.0000000000    15.1670000000      2
     2254  2263  2262  6509    1  180.0000000000    15.1670000000      2
     2265  2264  2263  2262    1  0.0000000000      0.0000000000       2
     2266  2264  2263  2262    1  0.0000000000      0.0000000000       2
     2267  2264  2263  2262    1  0.0000000000      0.0000000000       2
     5351  5353  5355  5356    1  0.0000000000      0.5439200000       3
     5351  5353  5355  5357    1  0.0000000000      2.1756800000       3
     5351  5353  5355  5377    1  0.0000000000      2.1756800000       3
     5354  5353  5355  5356    1  0.0000000000      0.5020800000       3
     5354  5353  5355  5357    1  0.0000000000      0.5439200000       3
     5354  5353  5355  5377    1  0.0000000000      0.5439200000       3
     5380  5353  5355  5356    1  0.0000000000      0.6508444444       3
     5380  5353  5355  5357    1  0.0000000000      0.6508444444       3
     5380  5353  5355  5377    1  0.0000000000      0.6508444444       3
     5351  5353  5380  5350    1  180.0000000000    1.0041600000       2
     5351  5353  5380  5381    1  180.0000000000    1.0041600000       2
     5354  5353  5380  5350    1  0.0000000000      0.0000000000       1
     5354  5353  5380  5381    1  0.0000000000      0.0000000000       1
     5355  5353  5380  5350    1  180.0000000000    1.0041600000       2
     5355  5353  5380  5381    1  180.0000000000    1.0041600000       2
     5353  5355  5357  5358    1  0.0000000000      0.5439200000       3
     5353  5355  5357  5359    1  0.0000000000      0.6508444444       3
     5353  5355  5357  5373    1  0.0000000000      2.1756800000       3
     5356  5355  5357  5358    1  0.0000000000      0.5020800000       3
     5356  5355  5357  5359    1  0.0000000000      0.6508444444       3
     5356  5355  5357  5373    1  0.0000000000      0.5439200000       3
     5377  5355  5357  5358    1  0.0000000000      0.5439200000       3
     5377  5355  5357  5359    1  0.0000000000      0.6508444444       3
     5377  5355  5357  5373    1  0.0000000000      2.1756800000       3
     5353  5355  5377  5375    1  0.0000000000      0.6508444444       3
     5353  5355  5377  5378    1  0.0000000000      0.6508444444       3
     5353  5355  5377  5379    1  0.0000000000      0.6508444444       3
     5356  5355  5377  5375    1  0.0000000000      0.5439200000       3
     5356  5355  5377  5378    1  0.0000000000      0.5020800000       3
     5356  5355  5377  5379    1  0.0000000000      0.5020800000       3
     5357  5355  5377  5375    1  0.0000000000      0.6508444444       3
     5357  5355  5377  5378    1  0.0000000000      0.6508444444       3
     5357  5355  5377  5379    1  0.0000000000      0.6508444444       3
     5071  5072  5074  5075    1  180.0000000000    15.1670000000      2
     5071  5072  5074  5104    1  180.0000000000    15.1670000000      2
     5073  5072  5074  5075    1  180.0000000000    15.1670000000      2
     5073  5072  5074  5104    1  180.0000000000    15.1670000000      2
     5075  5077  5079  5080    1  0.0000000000      0.5439200000       3
     5075  5077  5079  5081    1  0.0000000000      2.1756800000       3
     5075  5077  5079  5101    1  0.0000000000      2.1756800000       3
     5078  5077  5079  5080    1  0.0000000000      0.5020800000       3
     5078  5077  5079  5081    1  0.0000000000      0.5439200000       3
     5078  5077  5079  5101    1  0.0000000000      0.5439200000       3
     5104  5077  5079  5080    1  0.0000000000      0.6508444444       3
     5104  5077  5079  5081    1  0.0000000000      0.6508444444       3
     5104  5077  5079  5101    1  0.0000000000      0.6508444444       3
     5075  5077  5104  5074    1  180.0000000000    1.0041600000       2
     5075  5077  5104  5105    1  180.0000000000    1.0041600000       2
     5078  5077  5104  5074    1  0.0000000000      0.0000000000       1
     5078  5077  5104  5105    1  0.0000000000      0.0000000000       1
     5079  5077  5104  5074    1  180.0000000000    1.0041600000       2
     5079  5077  5104  5105    1  180.0000000000    1.0041600000       2
     2291  2292  2294  2295    1  0.0000000000      0.6508444444       3
     2291  2292  2294  2296    1  0.0000000000      0.6508444444       3
     2291  2292  2294  2307    1  0.0000000000      0.6508444444       3
     2293  2292  2294  2295    1  0.0000000000      0.6508444444       3
     2293  2292  2294  2296    1  0.0000000000      0.6508444444       3
     2293  2292  2294  2307    1  0.0000000000      0.6508444444       3
     2302  2292  2294  2295    1  0.0000000000      0.6508444444       3
     2302  2292  2294  2296    1  0.0000000000      0.6508444444       3
     2302  2292  2294  2307    1  0.0000000000      0.6508444444       3
     2291  2292  2302  2303    1  0.0000000000      0.6508444444       3
     2291  2292  2302  2304    1  0.0000000000      0.6508444444       3
     2293  2292  2302  2303    1  0.0000000000      0.5020800000       3
     2293  2292  2302  2304    1  0.0000000000      0.5439200000       3
     2294  2292  2302  2303    1  0.0000000000      0.5439200000       3
     2294  2292  2302  2304    1  0.0000000000      2.1756800000       3
     6557  6556  6560  6561    1  0.0000000000      0.5439200000       3
     6557  6556  6560  6565    1  0.0000000000      0.6508444444       3
     6557  6556  6560  6589    1  0.0000000000      0.6508444444       3
     6558  6556  6560  6561    1  0.0000000000      0.5439200000       3
     6558  6556  6560  6565    1  0.0000000000      0.6508444444       3
     6558  6556  6560  6589    1  0.0000000000      0.6508444444       3
     6559  6556  6560  6561    1  0.0000000000      0.5439200000       3
     6559  6556  6560  6565    1  0.0000000000      0.6508444444       3
     6559  6556  6560  6589    1  0.0000000000      0.6508444444       3
     6602  6603  6604  6605    1  0.0000000000      0.0000000000       2
     6602  6603  6604  6606    1  0.0000000000      0.0000000000       2
     6602  6603  6604  6607    1  0.0000000000      0.0000000000       2
     6602  6603  6608  6609    1  180.0000000000    15.1670000000      2
     6604  6603  6608  6609    1  180.0000000000    15.1670000000      2
     6608  6603  6602  6615    1  180.0000000000    15.1670000000      2
     6604  6603  6608  2298    1  180.0000000000    15.1670000000      2
     6602  6603  6608  2298    1  180.0000000000    15.1670000000      2
     5072  5074  5075  5076    1  0.0000000000      0.0000000000       1
     5072  5074  5075  5077    1  180.0000000000    1.0041600000       2
     5072  5074  5075  5099    1  180.0000000000    1.0041600000       2
     5104  5074  5075  5076    1  0.0000000000      0.0000000000       1
     5104  5074  5075  5077    1  180.0000000000    1.0041600000       2
     5104  5074  5075  5099    1  180.0000000000    1.0041600000       2
     5072  5074  5104  5077    1  180.0000000000    15.1670000000      2
     5072  5074  5104  5105    1  180.0000000000    15.1670000000      2
     5075  5074  5104  5077    1  180.0000000000    15.1670000000      2
     5075  5074  5104  5105    1  180.0000000000    15.1670000000      2
     5075  5099  5101  5079    1  0.0000000000      0.6508444444       3
     5075  5099  5101  5102    1  0.0000000000      0.6508444444       3
     5075  5099  5101  5103    1  0.0000000000      0.6508444444       3
     5097  5099  5101  5079    1  0.0000000000      0.6508444444       3
     5097  5099  5101  5102    1  0.0000000000      0.6508444444       3
     5097  5099  5101  5103    1  0.0000000000      0.6508444444       3
     5100  5099  5101  5079    1  0.0000000000      0.5439200000       3
     5100  5099  5101  5102    1  0.0000000000      0.5020800000       3
     5100  5099  5101  5103    1  0.0000000000      0.5020800000       3
     2227  2235  2233  2231    1  0.0000000000      0.6508444444       3
     2233  2235  2227  2229    1  0.0000000000      0.6508444444       3
     6603  6608  6609  6610    1  180.0000000000    15.1670000000      2
     6603  6608  6609  2300    1  180.0000000000    15.1670000000      2
     6603  6608  2298  2296    1  180.0000000000    1.0041600000       2
     6609  6608  2298  2296    1  180.0000000000    1.0041600000       2
     6603  6608  2298  2299    1  0.0000000000      0.0000000000       1
     6609  6608  2298  2299    1  0.0000000000      0.0000000000       1
     6603  6608  2298  2300    1  180.0000000000    1.0041600000       2
     6609  6608  2298  2300    1  180.0000000000    1.0041600000       2
     2227  2229  2231  2232    1  0.0000000000      0.6508444444       3
     2227  2229  2231  2233    1  0.0000000000      0.6508444444       3
     2230  2229  2231  2232    1  0.0000000000      0.6508444444       3
     2227  2229  2231  5090    1  0.0000000000      0.6508444444       3
     5091  2229  2231  2232    1  0.0000000000      0.6508444444       3
     2233  2231  2229  2230    1  0.0000000000      0.6508444444       3
     5090  2231  2229  2230    1  0.0000000000      0.6508444444       3
     5090  2231  2229  5091    1  0.0000000000      0.6508444444       3
     2233  2231  2229  5091    1  0.0000000000      0.6508444444       3
     2287  2288  2289  2290    1  180.0000000000    15.1670000000      2
     2287  2288  2289  2291    1  180.0000000000    15.1670000000      2
     2310  2288  2289  2290    1  180.0000000000    15.1670000000      2
     2310  2288  2289  2291    1  180.0000000000    15.1670000000      2
     2287  2288  2310  2311    1  180.0000000000    4.1840000000       2
     2287  2288  2310  2345    1  180.0000000000    4.1840000000       2
     2289  2288  2310  2311    1  180.0000000000    4.1840000000       2
     2289  2288  2310  2345    1  180.0000000000    4.1840000000       2
     5081  5097  5099  5075    1  0.0000000000      2.1756800000       3
     5081  5097  5099  5100    1  0.0000000000      0.5439200000       3
     5081  5097  5099  5101    1  0.0000000000      2.1756800000       3
     5084  5097  5099  5075    1  0.0000000000      0.6508444444       3
     5084  5097  5099  5100    1  0.0000000000      0.6508444444       3
     5084  5097  5099  5101    1  0.0000000000      0.6508444444       3
     5098  5097  5099  5075    1  0.0000000000      0.5439200000       3
     5098  5097  5099  5100    1  0.0000000000      0.5020800000       3
     5098  5097  5099  5101    1  0.0000000000      0.5439200000       3
     5087  5086  5085  5090    1  0.0000000000      0.0000000000       2
     5088  5086  5085  5090    1  0.0000000000      0.0000000000       2
     5089  5086  5085  5090    1  0.0000000000      0.0000000000       2
     2222  2223  2225  2226    1  0.0000000000      0.6508444444       3
     2222  2223  2225  2227    1  0.0000000000      0.6508444444       3
     2222  2223  2225  2238    1  0.0000000000      0.6508444444       3
     2224  2223  2225  2226    1  0.0000000000      0.6508444444       3
     2224  2223  2225  2227    1  0.0000000000      0.6508444444       3
     2224  2223  2225  2238    1  0.0000000000      0.6508444444       3
     2233  2223  2225  2226    1  0.0000000000      0.6508444444       3
     2233  2223  2225  2227    1  0.0000000000      0.6508444444       3
     2233  2223  2225  2238    1  0.0000000000      0.6508444444       3
     2222  2223  2233  2234    1  0.0000000000      0.6508444444       3
     2222  2223  2233  2235    1  0.0000000000      0.6508444444       3
     2224  2223  2233  2234    1  0.0000000000      0.5020800000       3
     2224  2223  2233  2235    1  0.0000000000      0.5439200000       3
     2225  2223  2233  2234    1  0.0000000000      0.5439200000       3
     2225  2223  2233  2235    1  0.0000000000      2.1756800000       3
     2223  2225  2227  2228    1  0.0000000000      0.5439200000       3
     2223  2225  2227  2235    1  0.0000000000      2.1756800000       3
     2226  2225  2227  2228    1  0.0000000000      0.5020800000       3
     2226  2225  2227  2235    1  0.0000000000      0.5439200000       3
     2238  2225  2227  2228    1  0.0000000000      0.6508444444       3
     2238  2225  2227  2235    1  0.0000000000      0.6508444444       3
     2223  2225  2238  2222    1  180.0000000000    1.0041600000       2
     2223  2225  2238  2239    1  180.0000000000    1.0041600000       2
     2226  2225  2238  2222    1  0.0000000000      0.0000000000       1
     2226  2225  2238  2239    1  0.0000000000      0.0000000000       1
     2227  2225  2238  2222    1  180.0000000000    1.0041600000       2
     2227  2225  2238  2239    1  180.0000000000    1.0041600000       2
     2302  2304  2296  2298    1  0.0000000000      0.6508444444       3
     2296  2304  2302  2300    1  0.0000000000      0.6508444444       3
     2288  2289  2291  2292    1  180.0000000000    15.1670000000      2
     2288  2289  2291  2307    1  180.0000000000    15.1670000000      2
     2290  2289  2291  2292    1  180.0000000000    15.1670000000      2
     2290  2289  2291  2307    1  180.0000000000    15.1670000000      2
     2291  2307  2308  2287    1  180.0000000000    15.1670000000      2
     2291  2307  2308  2309    1  180.0000000000    15.1670000000      2
     2294  2307  2308  2287    1  180.0000000000    15.1670000000      2
     2294  2307  2308  2309    1  180.0000000000    15.1670000000      2
     5085  5090  5091  5092    1  180.0000000000    15.1670000000      2
     2231  5090  5091  2229    1  180.0000000000    15.1670000000      2
     5085  5090  2231  2229    1  180.0000000000    1.0041600000       2
     5091  5090  2231  2229    1  180.0000000000    1.0041600000       2
     5085  5090  2231  2232    1  0.0000000000      0.0000000000       1
     5091  5090  2231  2232    1  0.0000000000      0.0000000000       1
     5085  5090  2231  2233    1  180.0000000000    1.0041600000       2
     5091  5090  2231  2233    1  180.0000000000    1.0041600000       2
     5085  5090  5091  2229    1  180.0000000000    15.1670000000      2
     2292  2294  2296  2297    1  0.0000000000      0.5439200000       3
     2292  2294  2296  2304    1  0.0000000000      2.1756800000       3
     2295  2294  2296  2297    1  0.0000000000      0.5020800000       3
     2295  2294  2296  2304    1  0.0000000000      0.5439200000       3
     2307  2294  2296  2297    1  0.0000000000      0.6508444444       3
     2307  2294  2296  2304    1  0.0000000000      0.6508444444       3
     2292  2294  2307  2291    1  180.0000000000    1.0041600000       2
     2292  2294  2307  2308    1  180.0000000000    1.0041600000       2
     2295  2294  2307  2291    1  0.0000000000      0.0000000000       1
     2295  2294  2307  2308    1  0.0000000000      0.0000000000       1
     2296  2294  2307  2291    1  180.0000000000    1.0041600000       2
     2296  2294  2307  2308    1  180.0000000000    1.0041600000       2
     5091  5092  5083  5081    1  180.0000000000    15.1670000000      2
     5093  5092  5091  5090    1  180.0000000000    15.1670000000      2
     5083  5092  5093  5094    1  0.0000000000      0.0000000000       2
     5083  5092  5093  5095    1  0.0000000000      0.0000000000       2
     5083  5092  5093  5096    1  0.0000000000      0.0000000000       2
     5083  5092  5091  2229    1  180.0000000000    15.1670000000      2
     5093  5092  5091  2229    1  180.0000000000    15.1670000000      2
     2229  2227  2225  2223    1  0.0000000000      2.1756800000       3
     2229  2227  2225  2226    1  0.0000000000      0.5439200000       3
     2229  2227  2225  2238    1  0.0000000000      0.6508444444       3
     2225  2227  2229  2230    1  0.0000000000      0.5439200000       3
     2225  2227  2229  2231    1  0.0000000000      2.1756800000       3
     2228  2227  2229  2230    1  0.0000000000      0.5020800000       3
     2228  2227  2229  2231    1  0.0000000000      0.5439200000       3
     2235  2227  2229  2230    1  0.0000000000      0.5439200000       3
     2235  2227  2229  2231    1  0.0000000000      2.1756800000       3
     2225  2227  2235  2233    1  0.0000000000      0.6508444444       3
     2225  2227  2235  2236    1  0.0000000000      0.6508444444       3
     2225  2227  2235  2237    1  0.0000000000      0.6508444444       3
     2228  2227  2235  2233    1  0.0000000000      0.5439200000       3
     2228  2227  2235  2236    1  0.0000000000      0.5020800000       3
     2228  2227  2235  2237    1  0.0000000000      0.5020800000       3
     2229  2227  2235  2236    1  0.0000000000      0.6508444444       3
     2229  2227  2235  2237    1  0.0000000000      0.6508444444       3
     2225  2227  2229  5091    1  0.0000000000      0.6508444444       3
     2228  2227  2229  5091    1  0.0000000000      0.6508444444       3
     2235  2227  2229  5091    1  0.0000000000      0.6508444444       3
     5079  5081  5083  5084    1  180.0000000000    1.0041600000       2
     5079  5081  5083  5092    1  180.0000000000    1.0041600000       2
     5082  5081  5083  5084    1  0.0000000000      0.0000000000       1
     5082  5081  5083  5092    1  0.0000000000      0.0000000000       1
     5097  5081  5083  5084    1  180.0000000000    1.0041600000       2
     5097  5081  5083  5092    1  180.0000000000    1.0041600000       2
     5079  5081  5097  5084    1  0.0000000000      0.6508444444       3
     5079  5081  5097  5098    1  0.0000000000      0.6508444444       3
     5079  5081  5097  5099    1  0.0000000000      0.6508444444       3
     5082  5081  5097  5084    1  0.0000000000      0.6508444444       3
     5082  5081  5097  5098    1  0.0000000000      0.6508444444       3
     5082  5081  5097  5099    1  0.0000000000      0.6508444444       3
     5083  5081  5097  5084    1  0.0000000000      0.6508444444       3
     5083  5081  5097  5098    1  0.0000000000      0.6508444444       3
     5083  5081  5097  5099    1  0.0000000000      0.6508444444       3
     5081  5083  5084  5085    1  180.0000000000    15.1670000000      2
     5081  5083  5084  5097    1  180.0000000000    15.1670000000      2
     5092  5083  5084  5085    1  180.0000000000    15.1670000000      2
     5092  5083  5084  5097    1  180.0000000000    15.1670000000      2
     5081  5083  5092  5093    1  180.0000000000    15.1670000000      2
     5084  5083  5092  5091    1  180.0000000000    15.1670000000      2
     5084  5083  5092  5093    1  180.0000000000    15.1670000000      2
     5090  5085  5084  5097    1  180.0000000000    15.1670000000      2
     5084  5085  5086  5087    1  0.0000000000      0.0000000000       2
     5084  5085  5086  5088    1  0.0000000000      0.0000000000       2
     5084  5085  5086  5089    1  0.0000000000      0.0000000000       2
     5084  5085  5090  5091    1  180.0000000000    15.1670000000      2
     5086  5085  5090  5091    1  180.0000000000    15.1670000000      2
     5084  5085  5090  2231    1  180.0000000000    15.1670000000      2
     5086  5085  5090  2231    1  180.0000000000    15.1670000000      2
     6605  6604  6603  6608    1  0.0000000000      0.0000000000       2
     6606  6604  6603  6608    1  0.0000000000      0.0000000000       2
     6607  6604  6603  6608    1  0.0000000000      0.0000000000       2
     5074  5075  5077  5078    1  0.0000000000      0.6508444444       3
     5074  5075  5077  5079    1  0.0000000000      0.6508444444       3
     5074  5075  5077  5104    1  0.0000000000      0.6508444444       3
     5076  5075  5077  5078    1  0.0000000000      0.6508444444       3
     5076  5075  5077  5079    1  0.0000000000      0.6508444444       3
     5076  5075  5077  5104    1  0.0000000000      0.6508444444       3
     5099  5075  5077  5078    1  0.0000000000      0.6508444444       3
     5099  5075  5077  5079    1  0.0000000000      0.6508444444       3
     5099  5075  5077  5104    1  0.0000000000      0.6508444444       3
     5074  5075  5099  5097    1  0.0000000000      0.6508444444       3
     5074  5075  5099  5100    1  0.0000000000      0.6508444444       3
     5074  5075  5099  5101    1  0.0000000000      0.6508444444       3
     5076  5075  5099  5097    1  0.0000000000      0.5439200000       3
     5076  5075  5099  5100    1  0.0000000000      0.5020800000       3
     5076  5075  5099  5101    1  0.0000000000      0.5439200000       3
     5077  5075  5099  5097    1  0.0000000000      2.1756800000       3
     5077  5075  5099  5100    1  0.0000000000      0.5439200000       3
     5077  5075  5099  5101    1  0.0000000000      2.1756800000       3
     2282  2287  2288  2289    1  180.0000000000    15.1670000000      2
     2282  2287  2288  2310    1  180.0000000000    15.1670000000      2
     2308  2287  2288  2289    1  180.0000000000    15.1670000000      2
     2308  2287  2288  2310    1  180.0000000000    15.1670000000      2
     2282  2287  2308  2307    1  180.0000000000    15.1670000000      2
     2282  2287  2308  2309    1  180.0000000000    15.1670000000      2
     2288  2287  2308  2307    1  180.0000000000    15.1670000000      2
     2288  2287  2308  2309    1  180.0000000000    15.1670000000      2
     5094  5093  5092  5091    1  0.0000000000      0.0000000000       2
     5095  5093  5092  5091    1  0.0000000000      0.0000000000       2
     5096  5093  5092  5091    1  0.0000000000      0.0000000000       2
     2294  2296  2298  2299    1  0.0000000000      0.5439200000       3
     2294  2296  2298  2300    1  0.0000000000      2.1756800000       3
     2297  2296  2298  2299    1  0.0000000000      0.5020800000       3
     2297  2296  2298  2300    1  0.0000000000      0.5439200000       3
     2304  2296  2298  2299    1  0.0000000000      0.5439200000       3
     2304  2296  2298  2300    1  0.0000000000      2.1756800000       3
     2294  2296  2304  2302    1  0.0000000000      0.6508444444       3
     2294  2296  2304  2305    1  0.0000000000      0.6508444444       3
     2294  2296  2304  2306    1  0.0000000000      0.6508444444       3
     2297  2296  2304  2302    1  0.0000000000      0.5439200000       3
     2297  2296  2304  2305    1  0.0000000000      0.5020800000       3
     2297  2296  2304  2306    1  0.0000000000      0.5020800000       3
     2298  2296  2304  2305    1  0.0000000000      0.6508444444       3
     2298  2296  2304  2306    1  0.0000000000      0.6508444444       3
     2298  2296  2294  2292    1  0.0000000000      2.1756800000       3
     2298  2296  2294  2295    1  0.0000000000      0.5439200000       3
     2298  2296  2294  2307    1  0.0000000000      0.6508444444       3
     2297  2296  2298  6608    1  0.0000000000      0.6508444444       3
     2304  2296  2298  6608    1  0.0000000000      0.6508444444       3
     2294  2296  2298  6608    1  0.0000000000      0.6508444444       3
     2231  2233  2223  2222    1  0.0000000000      0.6508444444       3
     2231  2233  2223  2224    1  0.0000000000      0.5439200000       3
     2231  2233  2223  2225    1  0.0000000000      2.1756800000       3
     2223  2233  2235  2227    1  0.0000000000      0.6508444444       3
     2223  2233  2235  2236    1  0.0000000000      0.6508444444       3
     2223  2233  2235  2237    1  0.0000000000      0.6508444444       3
     2231  2233  2235  2236    1  0.0000000000      0.6508444444       3
     2231  2233  2235  2237    1  0.0000000000      0.6508444444       3
     2234  2233  2235  2227    1  0.0000000000      0.5439200000       3
     2234  2233  2235  2236    1  0.0000000000      0.5020800000       3
     2234  2233  2235  2237    1  0.0000000000      0.5020800000       3
     2223  2233  2231  2229    1  0.0000000000      2.1756800000       3
     2234  2233  2231  2229    1  0.0000000000      0.5439200000       3
     2235  2233  2231  2229    1  0.0000000000      2.1756800000       3
     2223  2233  2231  2232    1  0.0000000000      0.5439200000       3
     2234  2233  2231  2232    1  0.0000000000      0.5020800000       3
     2235  2233  2231  2232    1  0.0000000000      0.5439200000       3
     2223  2233  2231  5090    1  0.0000000000      0.6508444444       3
     2234  2233  2231  5090    1  0.0000000000      0.6508444444       3
     2235  2233  2231  5090    1  0.0000000000      0.6508444444       3
     5083  5084  5085  5086    1  180.0000000000    15.1670000000      2
     5083  5084  5085  5090    1  180.0000000000    15.1670000000      2
     5097  5084  5085  5086    1  180.0000000000    15.1670000000      2
     5083  5084  5097  5081    1  180.0000000000    1.0041600000       2
     5083  5084  5097  5098    1  0.0000000000      0.0000000000       1
     5083  5084  5097  5099    1  180.0000000000    1.0041600000       2
     5085  5084  5097  5081    1  180.0000000000    1.0041600000       2
     5085  5084  5097  5098    1  0.0000000000      0.0000000000       1
     5085  5084  5097  5099    1  180.0000000000    1.0041600000       2
     5090  5091  5092  5083    1  180.0000000000    15.1670000000      2
     5092  5091  5090  2231    1  180.0000000000    15.1670000000      2
     5090  5091  2229  2230    1  0.0000000000      0.0000000000       1
     5092  5091  2229  2230    1  0.0000000000      0.0000000000       1
     5090  5091  2229  2231    1  180.0000000000    1.0041600000       2
     5092  5091  2229  2231    1  180.0000000000    1.0041600000       2
     5090  5091  2229  2227    1  180.0000000000    1.0041600000       2
     5092  5091  2229  2227    1  180.0000000000    1.0041600000       2
     2296  2298  2300  2301    1  0.0000000000      0.6508444444       3
     2296  2298  2300  2302    1  0.0000000000      0.6508444444       3
     2299  2298  2300  2301    1  0.0000000000      0.6508444444       3
     2296  2298  2300  6609    1  0.0000000000      0.6508444444       3
     6608  2298  2300  2301    1  0.0000000000      0.6508444444       3
     2289  2291  2292  2293    1  0.0000000000      0.0000000000       1
     2289  2291  2292  2294    1  180.0000000000    1.0041600000       2
     2289  2291  2292  2302    1  180.0000000000    1.0041600000       2
     2307  2291  2292  2293    1  0.0000000000      0.0000000000       1
     2307  2291  2292  2294    1  180.0000000000    1.0041600000       2
     2307  2291  2292  2302    1  180.0000000000    1.0041600000       2
     2289  2291  2307  2294    1  180.0000000000    15.1670000000      2
     2289  2291  2307  2308    1  180.0000000000    15.1670000000      2
     2292  2291  2307  2294    1  180.0000000000    15.1670000000      2
     2292  2291  2307  2308    1  180.0000000000    15.1670000000      2
     5077  5079  5081  5082    1  0.0000000000      0.5439200000       3
     5077  5079  5081  5083    1  0.0000000000      0.6508444444       3
     5077  5079  5081  5097    1  0.0000000000      2.1756800000       3
     5080  5079  5081  5082    1  0.0000000000      0.5020800000       3
     5080  5079  5081  5083    1  0.0000000000      0.6508444444       3
     5080  5079  5081  5097    1  0.0000000000      0.5439200000       3
     5101  5079  5081  5082    1  0.0000000000      0.5439200000       3
     5101  5079  5081  5083    1  0.0000000000      0.6508444444       3
     5101  5079  5081  5097    1  0.0000000000      2.1756800000       3
     5077  5079  5101  5099    1  0.0000000000      0.6508444444       3
     5077  5079  5101  5102    1  0.0000000000      0.6508444444       3
     5077  5079  5101  5103    1  0.0000000000      0.6508444444       3
     5080  5079  5101  5099    1  0.0000000000      0.5439200000       3
     5080  5079  5101  5102    1  0.0000000000      0.5020800000       3
     5080  5079  5101  5103    1  0.0000000000      0.5020800000       3
     5081  5079  5101  5099    1  0.0000000000      0.6508444444       3
     5081  5079  5101  5102    1  0.0000000000      0.6508444444       3
     5081  5079  5101  5103    1  0.0000000000      0.6508444444       3
     2278  2282  2283  2284    1  0.0000000000      0.5439200000       3
     2278  2282  2283  2285    1  0.0000000000      0.5439200000       3
     2278  2282  2283  2286    1  0.0000000000      0.5439200000       3
     2287  2282  2283  2284    1  0.0000000000      0.6508444444       3
     2287  2282  2283  2285    1  0.0000000000      0.6508444444       3
     2287  2282  2283  2286    1  0.0000000000      0.6508444444       3
     2311  2282  2283  2284    1  0.0000000000      0.6508444444       3
     2311  2282  2283  2285    1  0.0000000000      0.6508444444       3
     2311  2282  2283  2286    1  0.0000000000      0.6508444444       3
     2278  2282  2287  2288    1  0.0000000000      0.0000000000       2
     2278  2282  2287  2308    1  180.0000000000    1.0041600000       2
     2283  2282  2287  2288    1  0.0000000000      0.0000000000       2
     2283  2282  2287  2308    1  180.0000000000    1.0041600000       2
     2311  2282  2287  2288    1  0.0000000000      0.0000000000       2
     2311  2282  2287  2308    1  180.0000000000    0.0000000000       2
     2278  2282  2311  2310    1  0.0000000000      0.0000000000       2
     2278  2282  2311  2312    1  180.0000000000    1.0041600000       2
     2283  2282  2311  2310    1  0.0000000000      0.0000000000       2
     2283  2282  2311  2312    1  180.0000000000    1.0041600000       2
     2287  2282  2311  2310    1  0.0000000000      0.0000000000       2
     2287  2282  2311  2312    1  180.0000000000    0.0000000000       2
     935   937   939   940     1  0.0000000000      0.5439200000       3
     935   937   939   941     1  0.0000000000      2.1756800000       3
     935   937   939   961     1  0.0000000000      2.1756800000       3
     938   937   939   940     1  0.0000000000      0.5020800000       3
     938   937   939   941     1  0.0000000000      0.5439200000       3
     938   937   939   961     1  0.0000000000      0.5439200000       3
     964   937   939   940     1  0.0000000000      0.6508444444       3
     964   937   939   941     1  0.0000000000      0.6508444444       3
     964   937   939   961     1  0.0000000000      0.6508444444       3
     935   937   964   934     1  180.0000000000    1.0041600000       2
     935   937   964   965     1  180.0000000000    1.0041600000       2
     938   937   964   934     1  0.0000000000      0.0000000000       1
     938   937   964   965     1  0.0000000000      0.0000000000       1
     939   937   964   934     1  180.0000000000    1.0041600000       2
     939   937   964   965     1  180.0000000000    1.0041600000       2
     5290  5291  5292  5293    1  180.0000000000    15.1670000000      2
     5290  5291  5292  5297    1  180.0000000000    15.1670000000      2
     5304  5291  5292  5293    1  180.0000000000    15.1670000000      2
     5290  5291  5304  5288    1  180.0000000000    1.0041600000       2
     5290  5291  5304  5305    1  0.0000000000      0.0000000000       1
     5290  5291  5304  5306    1  180.0000000000    1.0041600000       2
     5292  5291  5304  5288    1  180.0000000000    1.0041600000       2
     5292  5291  5304  5305    1  0.0000000000      0.0000000000       1
     5292  5291  5304  5306    1  180.0000000000    1.0041600000       2
     5294  5293  5292  5297    1  0.0000000000      0.0000000000       2
     5295  5293  5292  5297    1  0.0000000000      0.0000000000       2
     5296  5293  5292  5297    1  0.0000000000      0.0000000000       2
     5363  5362  5361  5366    1  0.0000000000      0.0000000000       2
     5364  5362  5361  5366    1  0.0000000000      0.0000000000       2
     5365  5362  5361  5366    1  0.0000000000      0.0000000000       2
     5297  5292  5291  5304    1  180.0000000000    15.1670000000      2
     5291  5292  5293  5294    1  0.0000000000      0.0000000000       2
     5291  5292  5293  5295    1  0.0000000000      0.0000000000       2
     5291  5292  5293  5296    1  0.0000000000      0.0000000000       2
     5291  5292  5297  5298    1  180.0000000000    15.1670000000      2
     5293  5292  5297  5298    1  180.0000000000    15.1670000000      2
     5291  5292  5297  6852    1  180.0000000000    15.1670000000      2
     5293  5292  5297  6852    1  180.0000000000    15.1670000000      2
     5292  5297  5298  5299    1  180.0000000000    15.1670000000      2
     6852  5297  5298  6854    1  180.0000000000    15.1670000000      2
     5292  5297  6852  6850    1  180.0000000000    1.0041600000       2
     5298  5297  6852  6850    1  180.0000000000    1.0041600000       2
     5292  5297  6852  6853    1  0.0000000000      0.0000000000       1
     5298  5297  6852  6853    1  0.0000000000      0.0000000000       1
     5292  5297  6852  6854    1  180.0000000000    1.0041600000       2
     5298  5297  6852  6854    1  180.0000000000    1.0041600000       2
     5292  5297  5298  6854    1  180.0000000000    15.1670000000      2
     937   939   941   942     1  0.0000000000      0.5439200000       3
     937   939   941   943     1  0.0000000000      0.6508444444       3
     937   939   941   957     1  0.0000000000      2.1756800000       3
     940   939   941   942     1  0.0000000000      0.5020800000       3
     940   939   941   943     1  0.0000000000      0.6508444444       3
     940   939   941   957     1  0.0000000000      0.5439200000       3
     961   939   941   942     1  0.0000000000      0.5439200000       3
     961   939   941   943     1  0.0000000000      0.6508444444       3
     961   939   941   957     1  0.0000000000      2.1756800000       3
     937   939   961   959     1  0.0000000000      0.6508444444       3
     937   939   961   962     1  0.0000000000      0.6508444444       3
     937   939   961   963     1  0.0000000000      0.6508444444       3
     940   939   961   959     1  0.0000000000      0.5439200000       3
     940   939   961   962     1  0.0000000000      0.5020800000       3
     940   939   961   963     1  0.0000000000      0.5020800000       3
     941   939   961   959     1  0.0000000000      0.6508444444       3
     941   939   961   962     1  0.0000000000      0.6508444444       3
     941   939   961   963     1  0.0000000000      0.6508444444       3
     5347  5348  5350  5351    1  180.0000000000    15.1670000000      2
     5347  5348  5350  5380    1  180.0000000000    15.1670000000      2
     5349  5348  5350  5351    1  180.0000000000    15.1670000000      2
     5349  5348  5350  5380    1  180.0000000000    15.1670000000      2
     934   964   965   930     1  180.0000000000    15.1670000000      2
     934   964   965   966     1  180.0000000000    15.1670000000      2
     937   964   965   930     1  180.0000000000    15.1670000000      2
     937   964   965   966     1  180.0000000000    15.1670000000      2
     939   941   943   944     1  180.0000000000    1.0041600000       2
     939   941   943   952     1  180.0000000000    1.0041600000       2
     942   941   943   944     1  0.0000000000      0.0000000000       1
     942   941   943   952     1  0.0000000000      0.0000000000       1
     957   941   943   944     1  180.0000000000    1.0041600000       2
     957   941   943   952     1  180.0000000000    1.0041600000       2
     939   941   957   944     1  0.0000000000      0.6508444444       3
     939   941   957   958     1  0.0000000000      0.6508444444       3
     939   941   957   959     1  0.0000000000      0.6508444444       3
     942   941   957   944     1  0.0000000000      0.6508444444       3
     942   941   957   958     1  0.0000000000      0.6508444444       3
     942   941   957   959     1  0.0000000000      0.6508444444       3
     943   941   957   944     1  0.0000000000      0.6508444444       3
     943   941   957   958     1  0.0000000000      0.6508444444       3
     943   941   957   959     1  0.0000000000      0.6508444444       3
     5348  5350  5351  5352    1  0.0000000000      0.0000000000       1
     5348  5350  5351  5353    1  180.0000000000    1.0041600000       2
     5348  5350  5351  5375    1  180.0000000000    1.0041600000       2
     5380  5350  5351  5352    1  0.0000000000      0.0000000000       1
     5380  5350  5351  5353    1  180.0000000000    1.0041600000       2
     5380  5350  5351  5375    1  180.0000000000    1.0041600000       2
     5348  5350  5380  5353    1  180.0000000000    15.1670000000      2
     5348  5350  5380  5381    1  180.0000000000    15.1670000000      2
     5351  5350  5380  5353    1  180.0000000000    15.1670000000      2
     5351  5350  5380  5381    1  180.0000000000    15.1670000000      2
     5357  5373  5375  5351    1  0.0000000000      2.1756800000       3
     5357  5373  5375  5376    1  0.0000000000      0.5439200000       3
     5357  5373  5375  5377    1  0.0000000000      2.1756800000       3
     5360  5373  5375  5351    1  0.0000000000      0.6508444444       3
     5360  5373  5375  5376    1  0.0000000000      0.6508444444       3
     5360  5373  5375  5377    1  0.0000000000      0.6508444444       3
     5374  5373  5375  5351    1  0.0000000000      0.5439200000       3
     5374  5373  5375  5376    1  0.0000000000      0.5020800000       3
     5374  5373  5375  5377    1  0.0000000000      0.5439200000       3
     5360  5361  5362  5363    1  0.0000000000      0.0000000000       2
     5360  5361  5362  5364    1  0.0000000000      0.0000000000       2
     5360  5361  5362  5365    1  0.0000000000      0.0000000000       2
     5360  5361  5366  5367    1  180.0000000000    15.1670000000      2
     5362  5361  5366  5367    1  180.0000000000    15.1670000000      2
     5366  5361  5360  5373    1  180.0000000000    15.1670000000      2
     5362  5361  5366  6714    1  180.0000000000    15.1670000000      2
     5360  5361  5366  6714    1  180.0000000000    15.1670000000      2
     5297  5298  5299  5290    1  180.0000000000    15.1670000000      2
     5299  5298  5297  6852    1  180.0000000000    15.1670000000      2
     5297  5298  6854  6855    1  0.0000000000      0.0000000000       1
     5299  5298  6854  6855    1  0.0000000000      0.0000000000       1
     5297  5298  6854  6856    1  180.0000000000    1.0041600000       2
     5299  5298  6854  6856    1  180.0000000000    1.0041600000       2
     5297  5298  6854  6852    1  180.0000000000    1.0041600000       2
     5299  5298  6854  6852    1  180.0000000000    1.0041600000       2
     5288  5304  5306  5282    1  0.0000000000      2.1756800000       3
     5288  5304  5306  5307    1  0.0000000000      0.5439200000       3
     5288  5304  5306  5308    1  0.0000000000      2.1756800000       3
     5291  5304  5306  5282    1  0.0000000000      0.6508444444       3
     5291  5304  5306  5307    1  0.0000000000      0.6508444444       3
     5291  5304  5306  5308    1  0.0000000000      0.6508444444       3
     5305  5304  5306  5282    1  0.0000000000      0.5439200000       3
     5305  5304  5306  5307    1  0.0000000000      0.5020800000       3
     5305  5304  5306  5308    1  0.0000000000      0.5439200000       3
     908   930   931   902     1  180.0000000000    15.1670000000      2
     908   930   931   932     1  180.0000000000    15.1670000000      2
     965   930   931   902     1  180.0000000000    15.1670000000      2
     965   930   931   932     1  180.0000000000    15.1670000000      2
     908   930   965   964     1  180.0000000000    15.1670000000      2
     908   930   965   966     1  180.0000000000    15.1670000000      2
     931   930   965   964     1  180.0000000000    15.1670000000      2
     931   930   965   966     1  180.0000000000    15.1670000000      2
     935   959   961   939     1  0.0000000000      0.6508444444       3
     935   959   961   962     1  0.0000000000      0.6508444444       3
     935   959   961   963     1  0.0000000000      0.6508444444       3
     957   959   961   939     1  0.0000000000      0.6508444444       3
     957   959   961   962     1  0.0000000000      0.6508444444       3
     957   959   961   963     1  0.0000000000      0.6508444444       3
     960   959   961   939     1  0.0000000000      0.5439200000       3
     960   959   961   962     1  0.0000000000      0.5020800000       3
     960   959   961   963     1  0.0000000000      0.5020800000       3
     941   957   959   935     1  0.0000000000      2.1756800000       3
     941   957   959   960     1  0.0000000000      0.5439200000       3
     941   957   959   961     1  0.0000000000      2.1756800000       3
     944   957   959   935     1  0.0000000000      0.6508444444       3
     944   957   959   960     1  0.0000000000      0.6508444444       3
     944   957   959   961     1  0.0000000000      0.6508444444       3
     958   957   959   935     1  0.0000000000      0.5439200000       3
     958   957   959   960     1  0.0000000000      0.5020800000       3
     958   957   959   961     1  0.0000000000      0.5439200000       3
     5359  5360  5361  5362    1  180.0000000000    15.1670000000      2
     5359  5360  5361  5366    1  180.0000000000    15.1670000000      2
     5373  5360  5361  5362    1  180.0000000000    15.1670000000      2
     5359  5360  5373  5357    1  180.0000000000    1.0041600000       2
     5359  5360  5373  5374    1  0.0000000000      0.0000000000       1
     5359  5360  5373  5375    1  180.0000000000    1.0041600000       2
     5361  5360  5373  5357    1  180.0000000000    1.0041600000       2
     5361  5360  5373  5374    1  0.0000000000      0.0000000000       1
     5361  5360  5373  5375    1  180.0000000000    1.0041600000       2
     5350  5380  5381  5346    1  180.0000000000    15.1670000000      2
     5350  5380  5381  5382    1  180.0000000000    15.1670000000      2
     5353  5380  5381  5346    1  180.0000000000    15.1670000000      2
     5353  5380  5381  5382    1  180.0000000000    15.1670000000      2
     6850  6852  6854  6855    1  0.0000000000      0.6508444444       3
     6850  6852  6854  6856    1  0.0000000000      0.6508444444       3
     6853  6852  6854  6855    1  0.0000000000      0.6508444444       3
     5297  6852  6854  6855    1  0.0000000000      0.6508444444       3
     5297  6852  6854  5298    1  0.0000000000      0.6508444444       3
     6850  6852  6854  5298    1  0.0000000000      0.6508444444       3
     5318  5347  5348  5349    1  180.0000000000    15.1670000000      2
     5318  5347  5348  5350    1  180.0000000000    15.1670000000      2
     5346  5347  5348  5349    1  180.0000000000    15.1670000000      2
     5346  5347  5348  5350    1  180.0000000000    15.1670000000      2
     941   943   944   945     1  180.0000000000    15.1670000000      2
     941   943   944   957     1  180.0000000000    15.1670000000      2
     952   943   944   945     1  180.0000000000    15.1670000000      2
     952   943   944   957     1  180.0000000000    15.1670000000      2
     941   943   952   953     1  180.0000000000    15.1670000000      2
     944   943   952   951     1  180.0000000000    15.1670000000      2
     944   943   952   953     1  180.0000000000    15.1670000000      2
     6856  6854  6852  6853    1  0.0000000000      0.6508444444       3
     6856  6854  6852  5297    1  0.0000000000      0.6508444444       3
     5298  6854  6852  6853    1  0.0000000000      0.6508444444       3
     5315  5314  5318  5319    1  0.0000000000      0.5439200000       3
     5315  5314  5318  5323    1  0.0000000000      0.6508444444       3
     5315  5314  5318  5347    1  0.0000000000      0.6508444444       3
     5316  5314  5318  5319    1  0.0000000000      0.5439200000       3
     5316  5314  5318  5323    1  0.0000000000      0.6508444444       3
     5316  5314  5318  5347    1  0.0000000000      0.6508444444       3
     5317  5314  5318  5319    1  0.0000000000      0.5439200000       3
     5317  5314  5318  5323    1  0.0000000000      0.6508444444       3
     5317  5314  5318  5347    1  0.0000000000      0.6508444444       3
     5314  5318  5319  5320    1  0.0000000000      0.5439200000       3
     5314  5318  5319  5321    1  0.0000000000      0.5439200000       3
     5314  5318  5319  5322    1  0.0000000000      0.5439200000       3
     5323  5318  5319  5320    1  0.0000000000      0.6508444444       3
     5323  5318  5319  5321    1  0.0000000000      0.6508444444       3
     5323  5318  5319  5322    1  0.0000000000      0.6508444444       3
     5347  5318  5319  5320    1  0.0000000000      0.6508444444       3
     5347  5318  5319  5321    1  0.0000000000      0.6508444444       3
     5347  5318  5319  5322    1  0.0000000000      0.6508444444       3
     5314  5318  5323  5324    1  0.0000000000      0.0000000000       2
     5314  5318  5323  5344    1  180.0000000000    1.0041600000       2
     5319  5318  5323  5324    1  0.0000000000      0.0000000000       2
     5319  5318  5323  5344    1  180.0000000000    1.0041600000       2
     5347  5318  5323  5324    1  0.0000000000      0.0000000000       2
     5347  5318  5323  5344    1  180.0000000000    0.0000000000       2
     5314  5318  5347  5346    1  0.0000000000      0.0000000000       2
     5314  5318  5347  5348    1  180.0000000000    1.0041600000       2
     5319  5318  5347  5346    1  0.0000000000      0.0000000000       2
     5319  5318  5347  5348    1  180.0000000000    1.0041600000       2
     5323  5318  5347  5346    1  0.0000000000      0.0000000000       2
     5323  5318  5347  5348    1  180.0000000000    0.0000000000       2
     5282  5306  5308  5286    1  0.0000000000      0.6508444444       3
     5282  5306  5308  5309    1  0.0000000000      0.6508444444       3
     5282  5306  5308  5310    1  0.0000000000      0.6508444444       3
     5304  5306  5308  5286    1  0.0000000000      0.6508444444       3
     5304  5306  5308  5309    1  0.0000000000      0.6508444444       3
     5304  5306  5308  5310    1  0.0000000000      0.6508444444       3
     5307  5306  5308  5286    1  0.0000000000      0.5439200000       3
     5307  5306  5308  5309    1  0.0000000000      0.5020800000       3
     5307  5306  5308  5310    1  0.0000000000      0.5020800000       3
     934   935   937   938     1  0.0000000000      0.6508444444       3
     934   935   937   939     1  0.0000000000      0.6508444444       3
     934   935   937   964     1  0.0000000000      0.6508444444       3
     936   935   937   938     1  0.0000000000      0.6508444444       3
     936   935   937   939     1  0.0000000000      0.6508444444       3
     936   935   937   964     1  0.0000000000      0.6508444444       3
     959   935   937   938     1  0.0000000000      0.6508444444       3
     959   935   937   939     1  0.0000000000      0.6508444444       3
     959   935   937   964     1  0.0000000000      0.6508444444       3
     934   935   959   957     1  0.0000000000      0.6508444444       3
     934   935   959   960     1  0.0000000000      0.6508444444       3
     934   935   959   961     1  0.0000000000      0.6508444444       3
     936   935   959   957     1  0.0000000000      0.5439200000       3
     936   935   959   960     1  0.0000000000      0.5020800000       3
     936   935   959   961     1  0.0000000000      0.5439200000       3
     937   935   959   957     1  0.0000000000      2.1756800000       3
     937   935   959   960     1  0.0000000000      0.5439200000       3
     937   935   959   961     1  0.0000000000      2.1756800000       3
     5355  5357  5359  5360    1  180.0000000000    1.0041600000       2
     5355  5357  5359  5368    1  180.0000000000    1.0041600000       2
     5358  5357  5359  5360    1  0.0000000000      0.0000000000       1
     5358  5357  5359  5368    1  0.0000000000      0.0000000000       1
     5373  5357  5359  5360    1  180.0000000000    1.0041600000       2
     5373  5357  5359  5368    1  180.0000000000    1.0041600000       2
     5355  5357  5373  5360    1  0.0000000000      0.6508444444       3
     5355  5357  5373  5374    1  0.0000000000      0.6508444444       3
     5355  5357  5373  5375    1  0.0000000000      0.6508444444       3
     5358  5357  5373  5360    1  0.0000000000      0.6508444444       3
     5358  5357  5373  5374    1  0.0000000000      0.6508444444       3
     5358  5357  5373  5375    1  0.0000000000      0.6508444444       3
     5359  5357  5373  5360    1  0.0000000000      0.6508444444       3
     5359  5357  5373  5374    1  0.0000000000      0.6508444444       3
     5359  5357  5373  5375    1  0.0000000000      0.6508444444       3
     5350  5351  5353  5354    1  0.0000000000      0.6508444444       3
     5350  5351  5353  5355    1  0.0000000000      0.6508444444       3
     5350  5351  5353  5380    1  0.0000000000      0.6508444444       3
     5352  5351  5353  5354    1  0.0000000000      0.6508444444       3
     5352  5351  5353  5355    1  0.0000000000      0.6508444444       3
     5352  5351  5353  5380    1  0.0000000000      0.6508444444       3
     5375  5351  5353  5354    1  0.0000000000      0.6508444444       3
     5375  5351  5353  5355    1  0.0000000000      0.6508444444       3
     5375  5351  5353  5380    1  0.0000000000      0.6508444444       3
     5350  5351  5375  5373    1  0.0000000000      0.6508444444       3
     5350  5351  5375  5376    1  0.0000000000      0.6508444444       3
     5350  5351  5375  5377    1  0.0000000000      0.6508444444       3
     5352  5351  5375  5373    1  0.0000000000      0.5439200000       3
     5352  5351  5375  5376    1  0.0000000000      0.5020800000       3
     5352  5351  5375  5377    1  0.0000000000      0.5439200000       3
     5353  5351  5375  5373    1  0.0000000000      2.1756800000       3
     5353  5351  5375  5376    1  0.0000000000      0.5439200000       3
     5353  5351  5375  5377    1  0.0000000000      2.1756800000       3
     5351  5375  5377  5355    1  0.0000000000      0.6508444444       3
     5351  5375  5377  5378    1  0.0000000000      0.6508444444       3
     5351  5375  5377  5379    1  0.0000000000      0.6508444444       3
     5373  5375  5377  5355    1  0.0000000000      0.6508444444       3
     5373  5375  5377  5378    1  0.0000000000      0.6508444444       3
     5373  5375  5377  5379    1  0.0000000000      0.6508444444       3
     5376  5375  5377  5355    1  0.0000000000      0.5439200000       3
     5376  5375  5377  5378    1  0.0000000000      0.5020800000       3
     5376  5375  5377  5379    1  0.0000000000      0.5020800000       3
     932   934   935   936     1  0.0000000000      0.0000000000       1
     932   934   935   937     1  180.0000000000    1.0041600000       2
     932   934   935   959     1  180.0000000000    1.0041600000       2
     964   934   935   936     1  0.0000000000      0.0000000000       1
     964   934   935   937     1  180.0000000000    1.0041600000       2
     964   934   935   959     1  180.0000000000    1.0041600000       2
     932   934   964   937     1  180.0000000000    15.1670000000      2
     932   934   964   965     1  180.0000000000    15.1670000000      2
     935   934   964   937     1  180.0000000000    15.1670000000      2
     935   934   964   965     1  180.0000000000    15.1670000000      2
     5288  5290  5291  5292    1  180.0000000000    15.1670000000      2
     5288  5290  5291  5304    1  180.0000000000    15.1670000000      2
     5299  5290  5291  5292    1  180.0000000000    15.1670000000      2
     5299  5290  5291  5304    1  180.0000000000    15.1670000000      2
     5288  5290  5299  5300    1  180.0000000000    15.1670000000      2
     5291  5290  5299  5298    1  180.0000000000    15.1670000000      2
     5291  5290  5299  5300    1  180.0000000000    15.1670000000      2
     954   953   952   951     1  0.0000000000      0.0000000000       2
     955   953   952   951     1  0.0000000000      0.0000000000       2
     956   953   952   951     1  0.0000000000      0.0000000000       2
     5298  5299  5290  5288    1  180.0000000000    15.1670000000      2
     5300  5299  5298  5297    1  180.0000000000    15.1670000000      2
     5290  5299  5300  5301    1  0.0000000000      0.0000000000       2
     5290  5299  5300  5302    1  0.0000000000      0.0000000000       2
     5290  5299  5300  5303    1  0.0000000000      0.0000000000       2
     5290  5299  5298  6854    1  180.0000000000    15.1670000000      2
     5300  5299  5298  6854    1  180.0000000000    15.1670000000      2
     5361  5366  5367  5368    1  180.0000000000    15.1670000000      2
     5361  5366  5367  6716    1  180.0000000000    15.1670000000      2
     5361  5366  6714  6715    1  0.0000000000      0.0000000000       1
     5367  5366  6714  6715    1  0.0000000000      0.0000000000       1
     5361  5366  6714  6716    1  180.0000000000    1.0041600000       2
     5367  5366  6714  6716    1  180.0000000000    1.0041600000       2
     5361  5366  6714  6712    1  180.0000000000    1.0041600000       2
     5367  5366  6714  6712    1  180.0000000000    1.0041600000       2
     912   914   916   917     1  0.0000000000      0.5439200000       3
     912   914   916   924     1  0.0000000000      2.1756800000       3
     915   914   916   917     1  0.0000000000      0.5020800000       3
     915   914   916   924     1  0.0000000000      0.5439200000       3
     927   914   916   917     1  0.0000000000      0.6508444444       3
     927   914   916   924     1  0.0000000000      0.6508444444       3
     912   914   927   911     1  180.0000000000    1.0041600000       2
     912   914   927   928     1  180.0000000000    1.0041600000       2
     915   914   927   911     1  0.0000000000      0.0000000000       1
     915   914   927   928     1  0.0000000000      0.0000000000       1
     916   914   927   911     1  180.0000000000    1.0041600000       2
     916   914   927   928     1  180.0000000000    1.0041600000       2
     916   918   920   921     1  0.0000000000      0.6508444444       3
     916   918   920   922     1  0.0000000000      0.6508444444       3
     919   918   920   921     1  0.0000000000      0.6508444444       3
     53    918   920   921     1  0.0000000000      0.6508444444       3
     53    918   920   54      1  0.0000000000      0.6508444444       3
     916   918   920   54      1  0.0000000000      0.6508444444       3
     5370  5369  5368  5367    1  0.0000000000      0.0000000000       2
     5371  5369  5368  5367    1  0.0000000000      0.0000000000       2
     5372  5369  5368  5367    1  0.0000000000      0.0000000000       2
     226   228   230   231     1  0.0000000000      0.6508444444       3
     226   228   230   232     1  0.0000000000      0.6508444444       3
     229   228   230   231     1  0.0000000000      0.6508444444       3
     605   228   230   231     1  0.0000000000      0.6508444444       3
     605   228   230   606     1  0.0000000000      0.6508444444       3
     226   228   230   606     1  0.0000000000      0.6508444444       3
     5366  5367  5368  5359    1  180.0000000000    15.1670000000      2
     6716  5367  5366  6714    1  180.0000000000    15.1670000000      2
     5368  5367  6716  6714    1  180.0000000000    1.0041600000       2
     5366  5367  6716  6714    1  180.0000000000    1.0041600000       2
     5368  5367  6716  6717    1  0.0000000000      0.0000000000       1
     5366  5367  6716  6717    1  0.0000000000      0.0000000000       1
     5368  5367  6716  6718    1  180.0000000000    1.0041600000       2
     5366  5367  6716  6718    1  180.0000000000    1.0041600000       2
     5368  5367  5366  6714    1  180.0000000000    15.1670000000      2
     5328  5338  5336  5334    1  0.0000000000      2.1756800000       3
     5339  5338  5336  5334    1  0.0000000000      0.5439200000       3
     5340  5338  5336  5334    1  0.0000000000      2.1756800000       3
     5328  5338  5336  5337    1  0.0000000000      0.5439200000       3
     5339  5338  5336  5337    1  0.0000000000      0.5020800000       3
     5340  5338  5336  5337    1  0.0000000000      0.5439200000       3
     5336  5338  5328  5327    1  0.0000000000      0.6508444444       3
     5336  5338  5328  5329    1  0.0000000000      0.5439200000       3
     5336  5338  5328  5330    1  0.0000000000      2.1756800000       3
     5328  5338  5340  5332    1  0.0000000000      0.6508444444       3
     5328  5338  5340  5341    1  0.0000000000      0.6508444444       3
     5328  5338  5340  5342    1  0.0000000000      0.6508444444       3
     5336  5338  5340  5341    1  0.0000000000      0.6508444444       3
     5336  5338  5340  5342    1  0.0000000000      0.6508444444       3
     5339  5338  5340  5332    1  0.0000000000      0.5439200000       3
     5339  5338  5340  5341    1  0.0000000000      0.5020800000       3
     5339  5338  5340  5342    1  0.0000000000      0.5020800000       3
     5328  5338  5336  1020    1  0.0000000000      0.6508444444       3
     5339  5338  5336  1020    1  0.0000000000      0.6508444444       3
     5340  5338  5336  1020    1  0.0000000000      0.6508444444       3
     57    56    55    54      1  0.0000000000      0.0000000000       2
     58    56    55    54      1  0.0000000000      0.0000000000       2
     59    56    55    54      1  0.0000000000      0.0000000000       2
     6703  6704  6705  6706    1  180.0000000000    15.1670000000      2
     6703  6704  6705  6707    1  180.0000000000    15.1670000000      2
     6726  6704  6705  6706    1  180.0000000000    15.1670000000      2
     6726  6704  6705  6707    1  180.0000000000    15.1670000000      2
     6703  6704  6726  6727    1  180.0000000000    4.1840000000       2
     6703  6704  6726  6761    1  180.0000000000    4.1840000000       2
     6705  6704  6726  6727    1  180.0000000000    4.1840000000       2
     6705  6704  6726  6761    1  180.0000000000    4.1840000000       2
     228   226   224   222     1  0.0000000000      2.1756800000       3
     228   226   224   225     1  0.0000000000      0.5439200000       3
     228   226   224   237     1  0.0000000000      0.6508444444       3
     224   226   228   229     1  0.0000000000      0.5439200000       3
     224   226   228   230     1  0.0000000000      2.1756800000       3
     227   226   228   229     1  0.0000000000      0.5020800000       3
     227   226   228   230     1  0.0000000000      0.5439200000       3
     234   226   228   229     1  0.0000000000      0.5439200000       3
     234   226   228   230     1  0.0000000000      2.1756800000       3
     224   226   234   232     1  0.0000000000      0.6508444444       3
     224   226   234   235     1  0.0000000000      0.6508444444       3
     224   226   234   236     1  0.0000000000      0.6508444444       3
     227   226   234   232     1  0.0000000000      0.5439200000       3
     227   226   234   235     1  0.0000000000      0.5020800000       3
     227   226   234   236     1  0.0000000000      0.5020800000       3
     228   226   234   235     1  0.0000000000      0.6508444444       3
     228   226   234   236     1  0.0000000000      0.6508444444       3
     224   226   228   605     1  0.0000000000      0.6508444444       3
     227   226   228   605     1  0.0000000000      0.6508444444       3
     234   226   228   605     1  0.0000000000      0.6508444444       3
     908   909   911   912     1  180.0000000000    15.1670000000      2
     908   909   911   927     1  180.0000000000    15.1670000000      2
     910   909   911   912     1  180.0000000000    15.1670000000      2
     910   909   911   927     1  180.0000000000    15.1670000000      2
     5327  5328  5330  5331    1  0.0000000000      0.6508444444       3
     5327  5328  5330  5332    1  0.0000000000      0.6508444444       3
     5327  5328  5330  5343    1  0.0000000000      0.6508444444       3
     5329  5328  5330  5331    1  0.0000000000      0.6508444444       3
     5329  5328  5330  5332    1  0.0000000000      0.6508444444       3
     5329  5328  5330  5343    1  0.0000000000      0.6508444444       3
     5338  5328  5330  5331    1  0.0000000000      0.6508444444       3
     5338  5328  5330  5332    1  0.0000000000      0.6508444444       3
     5338  5328  5330  5343    1  0.0000000000      0.6508444444       3
     5327  5328  5338  5339    1  0.0000000000      0.6508444444       3
     5327  5328  5338  5340    1  0.0000000000      0.6508444444       3
     5329  5328  5338  5339    1  0.0000000000      0.5020800000       3
     5329  5328  5338  5340    1  0.0000000000      0.5439200000       3
     5330  5328  5338  5339    1  0.0000000000      0.5439200000       3
     5330  5328  5338  5340    1  0.0000000000      2.1756800000       3
     6718  6720  6712  6714    1  0.0000000000      0.6508444444       3
     6712  6720  6718  6716    1  0.0000000000      0.6508444444       3
     6718  6716  6714  6715    1  0.0000000000      0.6508444444       3
     5367  6716  6714  6715    1  0.0000000000      0.6508444444       3
     5367  6716  6714  5366    1  0.0000000000      0.6508444444       3
     6718  6716  6714  5366    1  0.0000000000      0.6508444444       3
     53    54    55    46      1  180.0000000000    15.1670000000      2
     55    54    53    918     1  180.0000000000    15.1670000000      2
     53    54    920   918     1  180.0000000000    1.0041600000       2
     55    54    920   918     1  180.0000000000    1.0041600000       2
     53    54    920   921     1  0.0000000000      0.0000000000       1
     55    54    920   921     1  0.0000000000      0.0000000000       1
     53    54    920   922     1  180.0000000000    1.0041600000       2
     55    54    920   922     1  180.0000000000    1.0041600000       2
     6704  6705  6707  6708    1  180.0000000000    15.1670000000      2
     6704  6705  6707  6723    1  180.0000000000    15.1670000000      2
     6706  6705  6707  6708    1  180.0000000000    15.1670000000      2
     6706  6705  6707  6723    1  180.0000000000    15.1670000000      2
     911   912   914   915     1  0.0000000000      0.6508444444       3
     911   912   914   916     1  0.0000000000      0.6508444444       3
     911   912   914   927     1  0.0000000000      0.6508444444       3
     913   912   914   915     1  0.0000000000      0.6508444444       3
     913   912   914   916     1  0.0000000000      0.6508444444       3
     913   912   914   927     1  0.0000000000      0.6508444444       3
     922   912   914   915     1  0.0000000000      0.6508444444       3
     922   912   914   916     1  0.0000000000      0.6508444444       3
     922   912   914   927     1  0.0000000000      0.6508444444       3
     911   912   922   923     1  0.0000000000      0.6508444444       3
     911   912   922   924     1  0.0000000000      0.6508444444       3
     913   912   922   923     1  0.0000000000      0.5020800000       3
     913   912   922   924     1  0.0000000000      0.5439200000       3
     914   912   922   923     1  0.0000000000      0.5439200000       3
     914   912   922   924     1  0.0000000000      2.1756800000       3
     6708  6710  6712  6713    1  0.0000000000      0.5439200000       3
     6708  6710  6712  6720    1  0.0000000000      2.1756800000       3
     6711  6710  6712  6713    1  0.0000000000      0.5020800000       3
     6711  6710  6712  6720    1  0.0000000000      0.5439200000       3
     6723  6710  6712  6713    1  0.0000000000      0.6508444444       3
     6723  6710  6712  6720    1  0.0000000000      0.6508444444       3
     6708  6710  6723  6707    1  180.0000000000    1.0041600000       2
     6708  6710  6723  6724    1  180.0000000000    1.0041600000       2
     6711  6710  6723  6707    1  0.0000000000      0.0000000000       1
     6711  6710  6723  6724    1  0.0000000000      0.0000000000       1
     6712  6710  6723  6707    1  180.0000000000    1.0041600000       2
     6712  6710  6723  6724    1  180.0000000000    1.0041600000       2
     912   922   924   916     1  0.0000000000      0.6508444444       3
     912   922   924   925     1  0.0000000000      0.6508444444       3
     912   922   924   926     1  0.0000000000      0.6508444444       3
     920   922   924   925     1  0.0000000000      0.6508444444       3
     920   922   924   926     1  0.0000000000      0.6508444444       3
     923   922   924   916     1  0.0000000000      0.5439200000       3
     923   922   924   925     1  0.0000000000      0.5020800000       3
     923   922   924   926     1  0.0000000000      0.5020800000       3
     912   922   920   918     1  0.0000000000      2.1756800000       3
     923   922   920   918     1  0.0000000000      0.5439200000       3
     924   922   920   918     1  0.0000000000      2.1756800000       3
     912   922   920   921     1  0.0000000000      0.5439200000       3
     923   922   920   921     1  0.0000000000      0.5020800000       3
     924   922   920   921     1  0.0000000000      0.5439200000       3
     920   922   912   911     1  0.0000000000      0.6508444444       3
     920   922   912   913     1  0.0000000000      0.5439200000       3
     920   922   912   914     1  0.0000000000      2.1756800000       3
     923   922   920   54      1  0.0000000000      0.6508444444       3
     924   922   920   54      1  0.0000000000      0.6508444444       3
     912   922   920   54      1  0.0000000000      0.6508444444       3
     5318  5323  5324  5325    1  180.0000000000    15.1670000000      2
     5318  5323  5324  5346    1  180.0000000000    15.1670000000      2
     5344  5323  5324  5325    1  180.0000000000    15.1670000000      2
     5344  5323  5324  5346    1  180.0000000000    15.1670000000      2
     5318  5323  5344  5343    1  180.0000000000    15.1670000000      2
     5318  5323  5344  5345    1  180.0000000000    15.1670000000      2
     5324  5323  5344  5343    1  180.0000000000    15.1670000000      2
     5324  5323  5344  5345    1  180.0000000000    15.1670000000      2
     907   908   909   910     1  180.0000000000    15.1670000000      2
     907   908   909   911     1  180.0000000000    15.1670000000      2
     930   908   909   910     1  180.0000000000    15.1670000000      2
     930   908   909   911     1  180.0000000000    15.1670000000      2
     907   908   930   931     1  180.0000000000    4.1840000000       2
     907   908   930   965     1  180.0000000000    4.1840000000       2
     909   908   930   931     1  180.0000000000    4.1840000000       2
     909   908   930   965     1  180.0000000000    4.1840000000       2
     5324  5325  5327  5328    1  180.0000000000    15.1670000000      2
     5324  5325  5327  5343    1  180.0000000000    15.1670000000      2
     5326  5325  5327  5328    1  180.0000000000    15.1670000000      2
     5326  5325  5327  5343    1  180.0000000000    15.1670000000      2
     5359  5368  5369  5370    1  0.0000000000      0.0000000000       2
     5359  5368  5369  5371    1  0.0000000000      0.0000000000       2
     5359  5368  5369  5372    1  0.0000000000      0.0000000000       2
     5369  5368  5367  5366    1  180.0000000000    15.1670000000      2
     5367  5368  5359  5357    1  180.0000000000    15.1670000000      2
     5369  5368  5367  6716    1  180.0000000000    15.1670000000      2
     5359  5368  5367  6716    1  180.0000000000    15.1670000000      2
     6716  6718  6708  6707    1  0.0000000000      0.6508444444       3
     6716  6718  6708  6709    1  0.0000000000      0.5439200000       3
     6716  6718  6708  6710    1  0.0000000000      2.1756800000       3
     6708  6718  6716  6714    1  0.0000000000      2.1756800000       3
     6719  6718  6716  6714    1  0.0000000000      0.5439200000       3
     6720  6718  6716  6714    1  0.0000000000      2.1756800000       3
     6708  6718  6716  6717    1  0.0000000000      0.5439200000       3
     6719  6718  6716  6717    1  0.0000000000      0.5020800000       3
     6720  6718  6716  6717    1  0.0000000000      0.5439200000       3
     6708  6718  6720  6712    1  0.0000000000      0.6508444444       3
     6708  6718  6720  6721    1  0.0000000000      0.6508444444       3
     6708  6718  6720  6722    1  0.0000000000      0.6508444444       3
     6716  6718  6720  6721    1  0.0000000000      0.6508444444       3
     6716  6718  6720  6722    1  0.0000000000      0.6508444444       3
     6719  6718  6720  6712    1  0.0000000000      0.5439200000       3
     6719  6718  6720  6721    1  0.0000000000      0.5020800000       3
     6719  6718  6720  6722    1  0.0000000000      0.5020800000       3
     6708  6718  6716  5367    1  0.0000000000      0.6508444444       3
     6719  6718  6716  5367    1  0.0000000000      0.6508444444       3
     6720  6718  6716  5367    1  0.0000000000      0.6508444444       3
     5324  5346  5347  5318    1  180.0000000000    15.1670000000      2
     5324  5346  5347  5348    1  180.0000000000    15.1670000000      2
     5381  5346  5347  5318    1  180.0000000000    15.1670000000      2
     5381  5346  5347  5348    1  180.0000000000    15.1670000000      2
     5324  5346  5381  5380    1  180.0000000000    15.1670000000      2
     5324  5346  5381  5382    1  180.0000000000    15.1670000000      2
     5347  5346  5381  5380    1  180.0000000000    15.1670000000      2
     5347  5346  5381  5382    1  180.0000000000    15.1670000000      2
     922   920   918   919     1  0.0000000000      0.6508444444       3
     922   920   918   53      1  0.0000000000      0.6508444444       3
     54    920   918   919     1  0.0000000000      0.6508444444       3
     6707  6723  6724  6703    1  180.0000000000    15.1670000000      2
     6707  6723  6724  6725    1  180.0000000000    15.1670000000      2
     6710  6723  6724  6703    1  180.0000000000    15.1670000000      2
     6710  6723  6724  6725    1  180.0000000000    15.1670000000      2
     6705  6707  6708  6709    1  0.0000000000      0.0000000000       1
     6705  6707  6708  6710    1  180.0000000000    1.0041600000       2
     6705  6707  6708  6718    1  180.0000000000    1.0041600000       2
     6723  6707  6708  6709    1  0.0000000000      0.0000000000       1
     6723  6707  6708  6710    1  180.0000000000    1.0041600000       2
     6723  6707  6708  6718    1  180.0000000000    1.0041600000       2
     6705  6707  6723  6710    1  180.0000000000    15.1670000000      2
     6705  6707  6723  6724    1  180.0000000000    15.1670000000      2
     6708  6707  6723  6710    1  180.0000000000    15.1670000000      2
     6708  6707  6723  6724    1  180.0000000000    15.1670000000      2
     5357  5359  5360  5361    1  180.0000000000    15.1670000000      2
     5357  5359  5360  5373    1  180.0000000000    15.1670000000      2
     5368  5359  5360  5361    1  180.0000000000    15.1670000000      2
     5368  5359  5360  5373    1  180.0000000000    15.1670000000      2
     5357  5359  5368  5369    1  180.0000000000    15.1670000000      2
     5360  5359  5368  5367    1  180.0000000000    15.1670000000      2
     5360  5359  5368  5369    1  180.0000000000    15.1670000000      2
     6712  6714  6716  6717    1  0.0000000000      0.6508444444       3
     6712  6714  6716  6718    1  0.0000000000      0.6508444444       3
     6715  6714  6716  6717    1  0.0000000000      0.6508444444       3
     6712  6714  6716  5367    1  0.0000000000      0.6508444444       3
     5366  6714  6716  6717    1  0.0000000000      0.6508444444       3
     6710  6712  6714  6715    1  0.0000000000      0.5439200000       3
     6710  6712  6714  6716    1  0.0000000000      2.1756800000       3
     6713  6712  6714  6715    1  0.0000000000      0.5020800000       3
     6713  6712  6714  6716    1  0.0000000000      0.5439200000       3
     6720  6712  6714  6715    1  0.0000000000      0.5439200000       3
     6720  6712  6714  6716    1  0.0000000000      2.1756800000       3
     6710  6712  6720  6718    1  0.0000000000      0.6508444444       3
     6710  6712  6720  6721    1  0.0000000000      0.6508444444       3
     6710  6712  6720  6722    1  0.0000000000      0.6508444444       3
     6713  6712  6720  6718    1  0.0000000000      0.5439200000       3
     6713  6712  6720  6721    1  0.0000000000      0.5020800000       3
     6713  6712  6720  6722    1  0.0000000000      0.5020800000       3
     6714  6712  6720  6721    1  0.0000000000      0.6508444444       3
     6714  6712  6720  6722    1  0.0000000000      0.6508444444       3
     6714  6712  6710  6708    1  0.0000000000      2.1756800000       3
     6714  6712  6710  6711    1  0.0000000000      0.5439200000       3
     6714  6712  6710  6723    1  0.0000000000      0.6508444444       3
     6713  6712  6714  5366    1  0.0000000000      0.6508444444       3
     6720  6712  6714  5366    1  0.0000000000      0.6508444444       3
     6710  6712  6714  5366    1  0.0000000000      0.6508444444       3
     6707  6708  6710  6711    1  0.0000000000      0.6508444444       3
     6707  6708  6710  6712    1  0.0000000000      0.6508444444       3
     6707  6708  6710  6723    1  0.0000000000      0.6508444444       3
     6709  6708  6710  6711    1  0.0000000000      0.6508444444       3
     6709  6708  6710  6712    1  0.0000000000      0.6508444444       3
     6709  6708  6710  6723    1  0.0000000000      0.6508444444       3
     6718  6708  6710  6711    1  0.0000000000      0.6508444444       3
     6718  6708  6710  6712    1  0.0000000000      0.6508444444       3
     6718  6708  6710  6723    1  0.0000000000      0.6508444444       3
     6707  6708  6718  6719    1  0.0000000000      0.6508444444       3
     6707  6708  6718  6720    1  0.0000000000      0.6508444444       3
     6709  6708  6718  6719    1  0.0000000000      0.5020800000       3
     6709  6708  6718  6720    1  0.0000000000      0.5439200000       3
     6710  6708  6718  6719    1  0.0000000000      0.5439200000       3
     6710  6708  6718  6720    1  0.0000000000      2.1756800000       3
     5328  5330  5332  5333    1  0.0000000000      0.5439200000       3
     5328  5330  5332  5340    1  0.0000000000      2.1756800000       3
     5331  5330  5332  5333    1  0.0000000000      0.5020800000       3
     5331  5330  5332  5340    1  0.0000000000      0.5439200000       3
     5343  5330  5332  5333    1  0.0000000000      0.6508444444       3
     5343  5330  5332  5340    1  0.0000000000      0.6508444444       3
     5328  5330  5343  5327    1  180.0000000000    1.0041600000       2
     5328  5330  5343  5344    1  180.0000000000    1.0041600000       2
     5331  5330  5343  5327    1  0.0000000000      0.0000000000       1
     5331  5330  5343  5344    1  0.0000000000      0.0000000000       1
     5332  5330  5343  5327    1  180.0000000000    1.0041600000       2
     5332  5330  5343  5344    1  180.0000000000    1.0041600000       2
     5325  5327  5328  5329    1  0.0000000000      0.0000000000       1
     5325  5327  5328  5330    1  180.0000000000    1.0041600000       2
     5325  5327  5328  5338    1  180.0000000000    1.0041600000       2
     5343  5327  5328  5329    1  0.0000000000      0.0000000000       1
     5343  5327  5328  5330    1  180.0000000000    1.0041600000       2
     5343  5327  5328  5338    1  180.0000000000    1.0041600000       2
     5325  5327  5343  5330    1  180.0000000000    15.1670000000      2
     5325  5327  5343  5344    1  180.0000000000    15.1670000000      2
     5328  5327  5343  5330    1  180.0000000000    15.1670000000      2
     5328  5327  5343  5344    1  180.0000000000    15.1670000000      2
     5323  5324  5325  5326    1  180.0000000000    15.1670000000      2
     5323  5324  5325  5327    1  180.0000000000    15.1670000000      2
     5346  5324  5325  5326    1  180.0000000000    15.1670000000      2
     5346  5324  5325  5327    1  180.0000000000    15.1670000000      2
     5323  5324  5346  5347    1  180.0000000000    4.1840000000       2
     5323  5324  5346  5381    1  180.0000000000    4.1840000000       2
     5325  5324  5346  5347    1  180.0000000000    4.1840000000       2
     5325  5324  5346  5381    1  180.0000000000    4.1840000000       2
     909   911   912   913     1  0.0000000000      0.0000000000       1
     909   911   912   914     1  180.0000000000    1.0041600000       2
     909   911   912   922     1  180.0000000000    1.0041600000       2
     927   911   912   913     1  0.0000000000      0.0000000000       1
     927   911   912   914     1  180.0000000000    1.0041600000       2
     927   911   912   922     1  180.0000000000    1.0041600000       2
     909   911   927   914     1  180.0000000000    15.1670000000      2
     909   911   927   928     1  180.0000000000    15.1670000000      2
     912   911   927   914     1  180.0000000000    15.1670000000      2
     912   911   927   928     1  180.0000000000    15.1670000000      2
     5327  5343  5344  5323    1  180.0000000000    15.1670000000      2
     5327  5343  5344  5345    1  180.0000000000    15.1670000000      2
     5330  5343  5344  5323    1  180.0000000000    15.1670000000      2
     5330  5343  5344  5345    1  180.0000000000    15.1670000000      2
     911   927   928   907     1  180.0000000000    15.1670000000      2
     911   927   928   929     1  180.0000000000    15.1670000000      2
     914   927   928   907     1  180.0000000000    15.1670000000      2
     914   927   928   929     1  180.0000000000    15.1670000000      2

[ system ]
Untitled

[ molecules ]
; Compound        nmols
lmp_system             1
